<?xml version='1.0' encoding='utf-8'?>
<modeling>
 <generator>
  <i name="program" type="string">vasp </i>
  <i name="version" type="string">mace-ase  </i>
  <i name="platform" type="string">mace-ase</i>
  <i name="date" type="string">2026 04 13</i>
  <i name="time" type="string">02:57:59</i>
 </generator>
 <incar>
  <i name="SYSTEM" type="string">Si</i>
  <i name="NSW" type="int">   100</i>
  <i name="EDIFFG">      -0.01000000</i>
  <i name="IBRION" type="int">   1</i>
  <i name="POTIM">      0.80000000</i>
  <i name="ISIF" type="int">   2</i>
  <i name="IMAGES" type="int">   4</i>
  <i name="SPRING" type="int">   -5</i>
  <i name="LCLIMB" type="logical"> T  </i>
 </incar>
 <parameters>
  <separator name="electronic">
   <i type="int" name="NELM">   60</i>
   <i type="logical" name="LCHIMAG"> F  </i>
   <i name="EDIFF">      0.00010000</i>
  </separator>
  <separator name="ionic">
   <i type="int" name="NSW">   100</i>
   <i type="int" name="IBRION">   1</i>
   <i type="int" name="ISIF">   2</i>
   <i name="EDIFFG">      -0.01000000</i>
   <i type="int" name="LORBIT">   0</i>
  </separator>
 </parameters>
 <atominfo>
  <atoms>     15 </atoms>
  <types>      1 </types>
  <array name="atoms">
   <dimension dim="1">ion</dimension>
   <field type="string">element</field>
   <field type="int">atomtype</field>
   <set>
    <rc>
     <c>Si</c>
     <c>   1</c>
    </rc>
    <rc>
     <c>Si</c>
     <c>   1</c>
    </rc>
    <rc>
     <c>Si</c>
     <c>   1</c>
    </rc>
    <rc>
     <c>Si</c>
     <c>   1</c>
    </rc>
    <rc>
     <c>Si</c>
     <c>   1</c>
    </rc>
    <rc>
     <c>Si</c>
     <c>   1</c>
    </rc>
    <rc>
     <c>Si</c>
     <c>   1</c>
    </rc>
    <rc>
     <c>Si</c>
     <c>   1</c>
    </rc>
    <rc>
     <c>Si</c>
     <c>   1</c>
    </rc>
    <rc>
     <c>Si</c>
     <c>   1</c>
    </rc>
    <rc>
     <c>Si</c>
     <c>   1</c>
    </rc>
    <rc>
     <c>Si</c>
     <c>   1</c>
    </rc>
    <rc>
     <c>Si</c>
     <c>   1</c>
    </rc>
    <rc>
     <c>Si</c>
     <c>   1</c>
    </rc>
    <rc>
     <c>Si</c>
     <c>   1</c>
    </rc>
   </set>
  </array>
  <array name="atomtypes">
   <dimension dim="1">type</dimension>
   <field type="int">atomspertype</field>
   <field type="string">element</field>
   <field>mass</field>
   <field>valence</field>
   <field type="string">pseudopotential</field>
   <set>
    <rc>
     <c>     15</c>
     <c>Si</c>
     <c>       28.08500000</c>
     <c>       0.00000000</c>
     <c>  PAW_PBE Si (MACE)                    </c>
    </rc>
   </set>
  </array>
 </atominfo>
 <structure name="initialpos">
  <crystal>
   <varray name="basis">
    <v>        5.47000000       5.47000000       0.00000000 </v>
    <v>        0.00000000       5.47000000       5.47000000 </v>
    <v>        5.47000000       0.00000000       5.47000000 </v>
   </varray>
   <i name="volume">      327.33464600 </i>
   <varray name="rec_basis">
    <v>        0.09140768       0.09140768      -0.09140768 </v>
    <v>       -0.09140768       0.09140768       0.09140768 </v>
    <v>        0.09140768      -0.09140768       0.09140768 </v>
   </varray>
  </crystal>
  <varray name="positions">
   <v>       -0.00021197      -0.00021197      -0.00021197 </v>
   <v>        0.12586047       0.12586047       0.12586047 </v>
   <v>       -0.00110821      -0.00110821       0.50357565 </v>
   <v>        0.12695376       0.12695376       0.62207568 </v>
   <v>       -0.00110821       0.50357565      -0.00110821 </v>
   <v>        0.12695376       0.62207568       0.12695376 </v>
   <v>       -0.01853223       0.50386917       0.50386917 </v>
   <v>        0.14449562       0.62197325       0.62197325 </v>
   <v>        0.50357565      -0.00110821      -0.00110821 </v>
   <v>        0.62207568       0.12695376       0.12695376 </v>
   <v>        0.50386917      -0.01853223       0.50386917 </v>
   <v>        0.62197325       0.14449562       0.62197325 </v>
   <v>        0.50386917       0.50386917      -0.01853223 </v>
   <v>        0.62197325       0.62197325       0.14449562 </v>
   <v>        0.56295725       0.56295725       0.56295725 </v>
  </varray>
 </structure>
 <calculation>
  <scstep>
   <energy>
    <i name="e_fr_energy">          -77.52435877 </i>
    <i name="e_wo_entrp">          -77.52435877 </i>
    <i name="e_0_energy">          -77.52435877 </i>
   </energy>
  </scstep>
  <structure>
   <crystal>
    <varray name="basis">
     <v>        5.47000000       5.47000000       0.00000000 </v>
     <v>        0.00000000       5.47000000       5.47000000 </v>
     <v>        5.47000000       0.00000000       5.47000000 </v>
    </varray>
    <i name="volume">      327.33464600 </i>
    <varray name="rec_basis">
     <v>        0.09140768       0.09140768      -0.09140768 </v>
     <v>       -0.09140768       0.09140768       0.09140768 </v>
     <v>        0.09140768      -0.09140768       0.09140768 </v>
    </varray>
   </crystal>
   <varray name="positions">
    <v>       -0.00021197      -0.00021197      -0.00021197 </v>
    <v>        0.12586047       0.12586047       0.12586047 </v>
    <v>       -0.00110821      -0.00110821       0.50357565 </v>
    <v>        0.12695376       0.12695376       0.62207568 </v>
    <v>       -0.00110821       0.50357565      -0.00110821 </v>
    <v>        0.12695376       0.62207568       0.12695376 </v>
    <v>       -0.01853223       0.50386917       0.50386917 </v>
    <v>        0.14449562       0.62197325       0.62197325 </v>
    <v>        0.50357565      -0.00110821      -0.00110821 </v>
    <v>        0.62207568       0.12695376       0.12695376 </v>
    <v>        0.50386917      -0.01853223       0.50386917 </v>
    <v>        0.62197325       0.14449562       0.62197325 </v>
    <v>        0.50386917       0.50386917      -0.01853223 </v>
    <v>        0.62197325       0.62197325       0.14449562 </v>
    <v>        0.56295725       0.56295725       0.56295725 </v>
   </varray>
  </structure>
  <varray name="forces">
   <v>       -0.02195726      -0.02195726      -0.02195726 </v>
   <v>        0.02580371       0.02580371       0.02580371 </v>
   <v>        0.01224468       0.00671178       0.01224468 </v>
   <v>       -0.01116262      -0.00785091      -0.01116262 </v>
   <v>        0.00671178       0.01224468       0.01224468 </v>
   <v>       -0.00785091      -0.01116262      -0.01116262 </v>
   <v>        0.03920632       0.03920632       0.01595717 </v>
   <v>       -0.04138568      -0.04138568      -0.01684856 </v>
   <v>        0.01224468       0.01224468       0.00671178 </v>
   <v>       -0.01116262      -0.01116262      -0.00785091 </v>
   <v>        0.01595717       0.03920632       0.03920632 </v>
   <v>       -0.01684856      -0.04138568      -0.04138568 </v>
   <v>        0.03920632       0.01595717       0.03920632 </v>
   <v>       -0.04138568      -0.01684856      -0.04138568 </v>
   <v>        0.00037866       0.00037866       0.00037866 </v>
  </varray>
  <varray name="stress">
   <v>      -48.32650675     -11.45103200     -11.45103200 </v>
   <v>      -11.45103200     -48.32650675     -11.45103200 </v>
   <v>      -11.45103200     -11.45103200     -48.32650675 </v>
  </varray>
  <energy>
   <i name="e_fr_energy">          -77.52435877 </i>
   <i name="e_wo_entrp">          -77.52435877 </i>
   <i name="e_0_energy">          -77.52435877 </i>
  </energy>
 </calculation>
 <calculation>
  <scstep>
   <energy>
    <i name="e_fr_energy">          -77.52557553 </i>
    <i name="e_wo_entrp">          -77.52557553 </i>
    <i name="e_0_energy">          -77.52557553 </i>
   </energy>
  </scstep>
  <structure>
   <crystal>
    <varray name="basis">
     <v>        5.47000000       5.47000000       0.00000000 </v>
     <v>        0.00000000       5.47000000       5.47000000 </v>
     <v>        5.47000000       0.00000000       5.47000000 </v>
    </varray>
    <i name="volume">      327.33464600 </i>
    <varray name="rec_basis">
     <v>        0.09140768       0.09140768      -0.09140768 </v>
     <v>       -0.09140768       0.09140768       0.09140768 </v>
     <v>        0.09140768      -0.09140768       0.09140768 </v>
    </varray>
   </crystal>
   <varray name="positions">
    <v>       -0.00034260      -0.00034260      -0.00034260 </v>
    <v>        0.12601276       0.12601276       0.12601276 </v>
    <v>       -0.00107026      -0.00107026       0.50368015 </v>
    <v>        0.12690541       0.12690541       0.62198892 </v>
    <v>       -0.00107026       0.50368015      -0.00107026 </v>
    <v>        0.12690541       0.62198892       0.12690541 </v>
    <v>       -0.01817290       0.50396162       0.50396162 </v>
    <v>        0.14409872       0.62187146       0.62187146 </v>
    <v>        0.50368015      -0.00107026      -0.00107026 </v>
    <v>        0.62198892       0.12690541       0.12690541 </v>
    <v>        0.50396162      -0.01817290       0.50396162 </v>
    <v>        0.62187146       0.14409872       0.62187146 </v>
    <v>        0.50396162       0.50396162      -0.01817290 </v>
    <v>        0.62187146       0.62187146       0.14409872 </v>
    <v>        0.56299637       0.56299637       0.56299637 </v>
   </varray>
  </structure>
  <varray name="forces">
   <v>       -0.00259430      -0.00259430      -0.00259430 </v>
   <v>        0.00573889       0.00573889       0.00573889 </v>
   <v>       -0.00118183      -0.00772794      -0.00118183 </v>
   <v>        0.00218463       0.00680641       0.00218463 </v>
   <v>       -0.00772794      -0.00118183      -0.00118183 </v>
   <v>        0.00680641       0.00218463       0.00218463 </v>
   <v>        0.02098158       0.02098158       0.00017026 </v>
   <v>       -0.02399219      -0.02399219      -0.00136752 </v>
   <v>       -0.00118183      -0.00118183      -0.00772794 </v>
   <v>        0.00218463       0.00218463       0.00680641 </v>
   <v>        0.00017026       0.02098158       0.02098158 </v>
   <v>       -0.00136752      -0.02399219      -0.02399219 </v>
   <v>        0.02098158       0.00017026       0.02098158 </v>
   <v>       -0.02399219      -0.00136752      -0.02399219 </v>
   <v>        0.00298982       0.00298982       0.00298982 </v>
  </varray>
  <varray name="stress">
   <v>      -48.22011127     -11.24959383     -11.24959383 </v>
   <v>      -11.24959383     -48.22011127     -11.24959383 </v>
   <v>      -11.24959383     -11.24959383     -48.22011127 </v>
  </varray>
  <energy>
   <i name="e_fr_energy">          -77.52557553 </i>
   <i name="e_wo_entrp">          -77.52557553 </i>
   <i name="e_0_energy">          -77.52557553 </i>
  </energy>
 </calculation>
 <calculation>
  <scstep>
   <energy>
    <i name="e_fr_energy">          -77.52609311 </i>
    <i name="e_wo_entrp">          -77.52609311 </i>
    <i name="e_0_energy">          -77.52609311 </i>
   </energy>
  </scstep>
  <structure>
   <crystal>
    <varray name="basis">
     <v>        5.47000000       5.47000000       0.00000000 </v>
     <v>        0.00000000       5.47000000       5.47000000 </v>
     <v>        5.47000000       0.00000000       5.47000000 </v>
    </varray>
    <i name="volume">      327.33464600 </i>
    <varray name="rec_basis">
     <v>        0.09140768       0.09140768      -0.09140768 </v>
     <v>       -0.09140768       0.09140768       0.09140768 </v>
     <v>        0.09140768      -0.09140768       0.09140768 </v>
    </varray>
   </crystal>
   <varray name="positions">
    <v>       -0.00037879      -0.00037879      -0.00037879 </v>
    <v>        0.12609491       0.12609491       0.12609491 </v>
    <v>       -0.00117825      -0.00117825       0.50375755 </v>
    <v>        0.12700405       0.12700405       0.62195562 </v>
    <v>       -0.00117825       0.50375755      -0.00117825 </v>
    <v>        0.12700405       0.62195562       0.12700405 </v>
    <v>       -0.01756833       0.50396666       0.50396666 </v>
    <v>        0.14344326       0.62185456       0.62185456 </v>
    <v>        0.50375755      -0.00117825      -0.00117825 </v>
    <v>        0.62195562       0.12700405       0.12700405 </v>
    <v>        0.50396666      -0.01756833       0.50396666 </v>
    <v>        0.62185456       0.14344326       0.62185456 </v>
    <v>        0.50396666       0.50396666      -0.01756833 </v>
    <v>        0.62185456       0.62185456       0.14344326 </v>
    <v>        0.56299824       0.56299824       0.56299824 </v>
   </varray>
  </structure>
  <varray name="forces">
   <v>        0.00747177       0.00747177       0.00747177 </v>
   <v>       -0.00541552      -0.00541552      -0.00541552 </v>
   <v>        0.00192750       0.00330704       0.00192750 </v>
   <v>       -0.00128913      -0.00407782      -0.00128913 </v>
   <v>        0.00330704       0.00192750       0.00192750 </v>
   <v>       -0.00407782      -0.00128913      -0.00128913 </v>
   <v>        0.00000547       0.00000547      -0.00258140 </v>
   <v>       -0.00278991      -0.00278991       0.00168207 </v>
   <v>        0.00192750       0.00192750       0.00330704 </v>
   <v>       -0.00128913      -0.00128913      -0.00407782 </v>
   <v>       -0.00258140       0.00000547       0.00000547 </v>
   <v>        0.00168207      -0.00278991      -0.00278991 </v>
   <v>        0.00000547      -0.00258140       0.00000547 </v>
   <v>       -0.00278991       0.00168207      -0.00278991 </v>
   <v>        0.00390599       0.00390599       0.00390599 </v>
  </varray>
  <varray name="stress">
   <v>      -47.99789598     -11.35538221     -11.35538221 </v>
   <v>      -11.35538221     -47.99789598     -11.35538221 </v>
   <v>      -11.35538221     -11.35538221     -47.99789598 </v>
  </varray>
  <energy>
   <i name="e_fr_energy">          -77.52609311 </i>
   <i name="e_wo_entrp">          -77.52609311 </i>
   <i name="e_0_energy">          -77.52609311 </i>
  </energy>
 </calculation>
 <calculation>
  <scstep>
   <energy>
    <i name="e_fr_energy">          -77.52610388 </i>
    <i name="e_wo_entrp">          -77.52610388 </i>
    <i name="e_0_energy">          -77.52610388 </i>
   </energy>
  </scstep>
  <structure>
   <crystal>
    <varray name="basis">
     <v>        5.47000000       5.47000000       0.00000000 </v>
     <v>        0.00000000       5.47000000       5.47000000 </v>
     <v>        5.47000000       0.00000000       5.47000000 </v>
    </varray>
    <i name="volume">      327.33464600 </i>
    <varray name="rec_basis">
     <v>        0.09140768       0.09140768      -0.09140768 </v>
     <v>       -0.09140768       0.09140768       0.09140768 </v>
     <v>        0.09140768      -0.09140768       0.09140768 </v>
    </varray>
   </crystal>
   <varray name="positions">
    <v>       -0.00034506      -0.00034506      -0.00034506 </v>
    <v>        0.12607158       0.12607158       0.12607158 </v>
    <v>       -0.00116193      -0.00116193       0.50376124 </v>
    <v>        0.12698779       0.12698779       0.62196353 </v>
    <v>       -0.00116193       0.50376124      -0.00116193 </v>
    <v>        0.12698779       0.62196353       0.12698779 </v>
    <v>       -0.01754800       0.50395796       0.50395796 </v>
    <v>        0.14341712       0.62186451       0.62186451 </v>
    <v>        0.50376124      -0.00116193      -0.00116193 </v>
    <v>        0.62196353       0.12698779       0.12698779 </v>
    <v>        0.50395796      -0.01754800       0.50395796 </v>
    <v>        0.62186451       0.14341712       0.62186451 </v>
    <v>        0.50395796       0.50395796      -0.01754800 </v>
    <v>        0.62186451       0.62186451       0.14341712 </v>
    <v>        0.56297863       0.56297863       0.56297863 </v>
   </varray>
  </structure>
  <varray name="forces">
   <v>        0.00203124       0.00203124       0.00203124 </v>
   <v>       -0.00015301      -0.00015301      -0.00015301 </v>
   <v>       -0.00035781       0.00079100      -0.00035781 </v>
   <v>        0.00091749      -0.00147536       0.00091749 </v>
   <v>        0.00079100      -0.00035781      -0.00035781 </v>
   <v>       -0.00147536       0.00091749       0.00091749 </v>
   <v>       -0.00039136      -0.00039136      -0.00250853 </v>
   <v>       -0.00183895      -0.00183895       0.00171989 </v>
   <v>       -0.00035781      -0.00035781       0.00079100 </v>
   <v>        0.00091749       0.00091749      -0.00147536 </v>
   <v>       -0.00250853      -0.00039136      -0.00039136 </v>
   <v>        0.00171989      -0.00183895      -0.00183895 </v>
   <v>       -0.00039136      -0.00250853      -0.00039136 </v>
   <v>       -0.00183895       0.00171989      -0.00183895 </v>
   <v>        0.00293603       0.00293603       0.00293603 </v>
  </varray>
  <varray name="stress">
   <v>      -47.97974787     -11.31084450     -11.31084450 </v>
   <v>      -11.31084450     -47.97974787     -11.31084450 </v>
   <v>      -11.31084450     -11.31084450     -47.97974787 </v>
  </varray>
  <energy>
   <i name="e_fr_energy">          -77.52610388 </i>
   <i name="e_wo_entrp">          -77.52610388 </i>
   <i name="e_0_energy">          -77.52610388 </i>
  </energy>
 </calculation>
 <structure name="finalpos">
  <crystal>
   <varray name="basis">
    <v>        5.47000000       5.47000000       0.00000000 </v>
    <v>        0.00000000       5.47000000       5.47000000 </v>
    <v>        5.47000000       0.00000000       5.47000000 </v>
   </varray>
   <i name="volume">      327.33464600 </i>
   <varray name="rec_basis">
    <v>        0.09140768       0.09140768      -0.09140768 </v>
    <v>       -0.09140768       0.09140768       0.09140768 </v>
    <v>        0.09140768      -0.09140768       0.09140768 </v>
   </varray>
  </crystal>
  <varray name="positions">
   <v>       -0.00034506      -0.00034506      -0.00034506 </v>
   <v>        0.12607158       0.12607158       0.12607158 </v>
   <v>       -0.00116193      -0.00116193       0.50376124 </v>
   <v>        0.12698779       0.12698779       0.62196353 </v>
   <v>       -0.00116193       0.50376124      -0.00116193 </v>
   <v>        0.12698779       0.62196353       0.12698779 </v>
   <v>       -0.01754800       0.50395796       0.50395796 </v>
   <v>        0.14341712       0.62186451       0.62186451 </v>
   <v>        0.50376124      -0.00116193      -0.00116193 </v>
   <v>        0.62196353       0.12698779       0.12698779 </v>
   <v>        0.50395796      -0.01754800       0.50395796 </v>
   <v>        0.62186451       0.14341712       0.62186451 </v>
   <v>        0.50395796       0.50395796      -0.01754800 </v>
   <v>        0.62186451       0.62186451       0.14341712 </v>
   <v>        0.56297863       0.56297863       0.56297863 </v>
  </varray>
 </structure>
</modeling>