<?xml version='1.0' encoding='utf-8'?>
<modeling>
 <generator>
  <i name="program" type="string">vasp </i>
  <i name="version" type="string">mace-ase  </i>
  <i name="platform" type="string">mace-ase</i>
  <i name="date" type="string">2026 04 13</i>
  <i name="time" type="string">02:59:38</i>
 </generator>
 <incar>
  <i name="SYSTEM" type="string">Pt</i>
  <i name="NSW" type="int">   100</i>
  <i name="EDIFFG">      -0.01000000</i>
  <i name="IBRION" type="int">   1</i>
  <i name="POTIM">      0.80000000</i>
  <i name="ISIF" type="int">   2</i>
  <i name="IMAGES" type="int">   3</i>
  <i name="SPRING" type="int">   -5</i>
 </incar>
 <parameters>
  <separator name="electronic">
   <i type="int" name="NELM">   60</i>
   <i type="logical" name="LCHIMAG"> F  </i>
   <i name="EDIFF">      0.00010000</i>
  </separator>
  <separator name="ionic">
   <i type="int" name="NSW">   100</i>
   <i type="int" name="IBRION">   1</i>
   <i type="int" name="ISIF">   2</i>
   <i name="EDIFFG">      -0.01000000</i>
   <i type="int" name="LORBIT">   0</i>
  </separator>
 </parameters>
 <atominfo>
  <atoms>     17 </atoms>
  <types>      1 </types>
  <array name="atoms">
   <dimension dim="1">ion</dimension>
   <field type="string">element</field>
   <field type="int">atomtype</field>
   <set>
    <rc>
     <c>Pt</c>
     <c>   1</c>
    </rc>
    <rc>
     <c>Pt</c>
     <c>   1</c>
    </rc>
    <rc>
     <c>Pt</c>
     <c>   1</c>
    </rc>
    <rc>
     <c>Pt</c>
     <c>   1</c>
    </rc>
    <rc>
     <c>Pt</c>
     <c>   1</c>
    </rc>
    <rc>
     <c>Pt</c>
     <c>   1</c>
    </rc>
    <rc>
     <c>Pt</c>
     <c>   1</c>
    </rc>
    <rc>
     <c>Pt</c>
     <c>   1</c>
    </rc>
    <rc>
     <c>Pt</c>
     <c>   1</c>
    </rc>
    <rc>
     <c>Pt</c>
     <c>   1</c>
    </rc>
    <rc>
     <c>Pt</c>
     <c>   1</c>
    </rc>
    <rc>
     <c>Pt</c>
     <c>   1</c>
    </rc>
    <rc>
     <c>Pt</c>
     <c>   1</c>
    </rc>
    <rc>
     <c>Pt</c>
     <c>   1</c>
    </rc>
    <rc>
     <c>Pt</c>
     <c>   1</c>
    </rc>
    <rc>
     <c>Pt</c>
     <c>   1</c>
    </rc>
    <rc>
     <c>Pt</c>
     <c>   1</c>
    </rc>
   </set>
  </array>
  <array name="atomtypes">
   <dimension dim="1">type</dimension>
   <field type="int">atomspertype</field>
   <field type="string">element</field>
   <field>mass</field>
   <field>valence</field>
   <field type="string">pseudopotential</field>
   <set>
    <rc>
     <c>     17</c>
     <c>Pt</c>
     <c>      195.08400000</c>
     <c>       0.00000000</c>
     <c>  PAW_PBE Pt (MACE)                    </c>
    </rc>
   </set>
  </array>
 </atominfo>
 <structure name="initialpos">
  <crystal>
   <varray name="basis">
    <v>        5.62024000       0.00000000       0.00000000 </v>
    <v>        0.00000000       5.62024000       0.00000000 </v>
    <v>        0.00000000       0.00000000      16.86072000 </v>
   </varray>
   <i name="volume">      532.58120922 </i>
   <varray name="rec_basis">
    <v>        0.17792834       0.00000000       0.00000000 </v>
    <v>        0.00000000       0.17792834       0.00000000 </v>
    <v>        0.00000000       0.00000000       0.05930945 </v>
   </varray>
  </crystal>
  <varray name="positions">
   <v>        0.00000000       0.00000000      -0.00397625 </v>
   <v>        0.00000000       0.50000000      -0.00388829 </v>
   <v>        0.50000000       0.00000000      -0.00396999 </v>
   <v>        0.50000000       0.50000000      -0.00397625 </v>
   <v>        0.25020708       0.24979292       0.11515211 </v>
   <v>        0.74979292       0.24979292       0.11515211 </v>
   <v>        0.25020708       0.75020708       0.11515211 </v>
   <v>        0.74979292       0.75020708       0.11515211 </v>
   <v>        0.00000000       0.00000000       0.23829984 </v>
   <v>        0.00000000       0.50000000       0.23521118 </v>
   <v>        0.50000000       0.00000000       0.23459766 </v>
   <v>        0.50000000       0.50000000       0.23829984 </v>
   <v>        0.26171469       0.23828531       0.35781922 </v>
   <v>        0.73828531       0.23828531       0.35781922 </v>
   <v>        0.26171469       0.76171469       0.35781922 </v>
   <v>        0.73828531       0.76171469       0.35781922 </v>
   <v>        0.00000000       0.50000000       0.44611519 </v>
  </varray>
 </structure>
 <calculation>
  <scstep>
   <energy>
    <i name="e_fr_energy">          -94.69428285 </i>
    <i name="e_wo_entrp">          -94.69428285 </i>
    <i name="e_0_energy">          -94.69428285 </i>
   </energy>
  </scstep>
  <structure>
   <crystal>
    <varray name="basis">
     <v>        5.62024000       0.00000000       0.00000000 </v>
     <v>        0.00000000       5.62024000       0.00000000 </v>
     <v>        0.00000000       0.00000000      16.86072000 </v>
    </varray>
    <i name="volume">      532.58120922 </i>
    <varray name="rec_basis">
     <v>        0.17792834       0.00000000       0.00000000 </v>
     <v>        0.00000000       0.17792834       0.00000000 </v>
     <v>        0.00000000       0.00000000       0.05930945 </v>
    </varray>
   </crystal>
   <varray name="positions">
    <v>        0.00000000       0.00000000      -0.00397625 </v>
    <v>        0.00000000       0.50000000      -0.00388829 </v>
    <v>        0.50000000       0.00000000      -0.00396999 </v>
    <v>        0.50000000       0.50000000      -0.00397625 </v>
    <v>        0.25020708       0.24979292       0.11515211 </v>
    <v>        0.74979292       0.24979292       0.11515211 </v>
    <v>        0.25020708       0.75020708       0.11515211 </v>
    <v>        0.74979292       0.75020708       0.11515211 </v>
    <v>        0.00000000       0.00000000       0.23829984 </v>
    <v>        0.00000000       0.50000000       0.23521118 </v>
    <v>        0.50000000       0.00000000       0.23459766 </v>
    <v>        0.50000000       0.50000000       0.23829984 </v>
    <v>        0.26171469       0.23828531       0.35781922 </v>
    <v>        0.73828531       0.23828531       0.35781922 </v>
    <v>        0.26171469       0.76171469       0.35781922 </v>
    <v>        0.73828531       0.76171469       0.35781922 </v>
    <v>        0.00000000       0.50000000       0.44611519 </v>
   </varray>
  </structure>
  <varray name="forces">
   <v>       -0.00000000       0.00000000       0.33466871 </v>
   <v>       -0.00000000       0.00000000       0.31267974 </v>
   <v>       -0.00000000       0.00000000       0.28632760 </v>
   <v>        0.00000000       0.00000000       0.33466871 </v>
   <v>       -0.03422485       0.03422485      -0.00216325 </v>
   <v>        0.03422485       0.03422485      -0.00216325 </v>
   <v>       -0.03422485      -0.03422485      -0.00216325 </v>
   <v>        0.03422485      -0.03422485      -0.00216325 </v>
   <v>        0.00000000       0.00000000      -0.12870447 </v>
   <v>       -0.00000000       0.00000000       0.15279878 </v>
   <v>       -0.00000000       0.00000000      -0.08636172 </v>
   <v>        0.00000000      -0.00000000      -0.12870447 </v>
   <v>        0.02860356      -0.02860356      -0.28505179 </v>
   <v>       -0.02860356      -0.02860356      -0.28505179 </v>
   <v>        0.02860356       0.02860356      -0.28505179 </v>
   <v>       -0.02860356       0.02860356      -0.28505179 </v>
   <v>        0.00000000      -0.00000000       0.07148727 </v>
  </varray>
  <varray name="stress">
   <v>      -41.63070875      -0.00000000      -0.00000000 </v>
   <v>       -0.00000000     -41.63070875      -0.00000000 </v>
   <v>       -0.00000000      -0.00000000     -21.69744433 </v>
  </varray>
  <energy>
   <i name="e_fr_energy">          -94.69428285 </i>
   <i name="e_wo_entrp">          -94.69428285 </i>
   <i name="e_0_energy">          -94.69428285 </i>
  </energy>
 </calculation>
 <structure name="finalpos">
  <crystal>
   <varray name="basis">
    <v>        5.62024000       0.00000000       0.00000000 </v>
    <v>        0.00000000       5.62024000       0.00000000 </v>
    <v>        0.00000000       0.00000000      16.86072000 </v>
   </varray>
   <i name="volume">      532.58120922 </i>
   <varray name="rec_basis">
    <v>        0.17792834       0.00000000       0.00000000 </v>
    <v>        0.00000000       0.17792834       0.00000000 </v>
    <v>        0.00000000       0.00000000       0.05930945 </v>
   </varray>
  </crystal>
  <varray name="positions">
   <v>        0.00000000       0.00000000      -0.00397625 </v>
   <v>        0.00000000       0.50000000      -0.00388829 </v>
   <v>        0.50000000       0.00000000      -0.00396999 </v>
   <v>        0.50000000       0.50000000      -0.00397625 </v>
   <v>        0.25020708       0.24979292       0.11515211 </v>
   <v>        0.74979292       0.24979292       0.11515211 </v>
   <v>        0.25020708       0.75020708       0.11515211 </v>
   <v>        0.74979292       0.75020708       0.11515211 </v>
   <v>        0.00000000       0.00000000       0.23829984 </v>
   <v>        0.00000000       0.50000000       0.23521118 </v>
   <v>        0.50000000       0.00000000       0.23459766 </v>
   <v>        0.50000000       0.50000000       0.23829984 </v>
   <v>        0.26171469       0.23828531       0.35781922 </v>
   <v>        0.73828531       0.23828531       0.35781922 </v>
   <v>        0.26171469       0.76171469       0.35781922 </v>
   <v>        0.73828531       0.76171469       0.35781922 </v>
   <v>        0.00000000       0.50000000       0.44611519 </v>
  </varray>
 </structure>
</modeling>