<?xml version='1.0' encoding='utf-8'?>
<modeling>
 <generator>
  <i name="program" type="string">vasp </i>
  <i name="version" type="string">mace-ase  </i>
  <i name="platform" type="string">mace-ase</i>
  <i name="date" type="string">2026 04 13</i>
  <i name="time" type="string">02:45:35</i>
 </generator>
 <incar>
  <i name="NSW" type="int">   100</i>
  <i name="ISIF" type="int">   3</i>
  <i name="EDIFFG">      -0.01000000</i>
 </incar>
 <parameters>
  <separator name="electronic">
   <i type="int" name="NELM">   60</i>
   <i type="logical" name="LCHIMAG"> F  </i>
   <i name="EDIFF">      0.00010000</i>
  </separator>
  <separator name="ionic">
   <i type="int" name="NSW">   100</i>
   <i type="int" name="IBRION">   -1</i>
   <i type="int" name="ISIF">   3</i>
   <i name="EDIFFG">      -0.01000000</i>
   <i type="int" name="LORBIT">   0</i>
  </separator>
 </parameters>
 <atominfo>
  <atoms>      8 </atoms>
  <types>      2 </types>
  <array name="atoms">
   <dimension dim="1">ion</dimension>
   <field type="string">element</field>
   <field type="int">atomtype</field>
   <set>
    <rc>
     <c>Mg</c>
     <c>   1</c>
    </rc>
    <rc>
     <c>Mg</c>
     <c>   1</c>
    </rc>
    <rc>
     <c>Mg</c>
     <c>   1</c>
    </rc>
    <rc>
     <c>Mg</c>
     <c>   1</c>
    </rc>
    <rc>
     <c>O</c>
     <c>   2</c>
    </rc>
    <rc>
     <c>O</c>
     <c>   2</c>
    </rc>
    <rc>
     <c>O</c>
     <c>   2</c>
    </rc>
    <rc>
     <c>O</c>
     <c>   2</c>
    </rc>
   </set>
  </array>
  <array name="atomtypes">
   <dimension dim="1">type</dimension>
   <field type="int">atomspertype</field>
   <field type="string">element</field>
   <field>mass</field>
   <field>valence</field>
   <field type="string">pseudopotential</field>
   <set>
    <rc>
     <c>      4</c>
     <c>Mg</c>
     <c>       24.30500000</c>
     <c>       0.00000000</c>
     <c>  PAW_PBE Mg (MACE)                    </c>
    </rc>
    <rc>
     <c>      4</c>
     <c>O</c>
     <c>       15.99900000</c>
     <c>       0.00000000</c>
     <c>  PAW_PBE O (MACE)                    </c>
    </rc>
   </set>
  </array>
 </atominfo>
 <structure name="initialpos">
  <crystal>
   <varray name="basis">
    <v>        4.21325430       0.00000000      -0.00000000 </v>
    <v>        0.00000000       4.21325430      -0.00000000 </v>
    <v>       -0.00000000      -0.00000000       4.21325430 </v>
   </varray>
   <i name="volume">       74.79163364 </i>
   <varray name="rec_basis">
    <v>        0.23734622      -0.00000000       0.00000000 </v>
    <v>       -0.00000000       0.23734622       0.00000000 </v>
    <v>        0.00000000       0.00000000       0.23734622 </v>
   </varray>
  </crystal>
  <varray name="positions">
   <v>        0.00000000      -0.00000000       0.00000000 </v>
   <v>        0.00000000       0.50000000       0.50000000 </v>
   <v>        0.50000000       0.00000000       0.50000000 </v>
   <v>        0.50000000       0.50000000       0.00000000 </v>
   <v>        0.50000000       0.50000000       0.50000000 </v>
   <v>        0.50000000       0.00000000      -0.00000000 </v>
   <v>        0.00000000       0.50000000       0.00000000 </v>
   <v>       -0.00000000       0.00000000       0.50000000 </v>
  </varray>
 </structure>
 <calculation>
  <scstep>
   <energy>
    <i name="e_fr_energy">          -47.74125261 </i>
    <i name="e_wo_entrp">          -47.74125261 </i>
    <i name="e_0_energy">          -47.74125261 </i>
   </energy>
  </scstep>
  <structure>
   <crystal>
    <varray name="basis">
     <v>        4.21325430       0.00000000      -0.00000000 </v>
     <v>        0.00000000       4.21325430      -0.00000000 </v>
     <v>       -0.00000000      -0.00000000       4.21325430 </v>
    </varray>
    <i name="volume">       74.79163364 </i>
    <varray name="rec_basis">
     <v>        0.23734622      -0.00000000       0.00000000 </v>
     <v>       -0.00000000       0.23734622       0.00000000 </v>
     <v>        0.00000000       0.00000000       0.23734622 </v>
    </varray>
   </crystal>
   <varray name="positions">
    <v>        0.00000000      -0.00000000       0.00000000 </v>
    <v>        0.00000000       0.50000000       0.50000000 </v>
    <v>        0.50000000       0.00000000       0.50000000 </v>
    <v>        0.50000000       0.50000000       0.00000000 </v>
    <v>        0.50000000       0.50000000       0.50000000 </v>
    <v>        0.50000000       0.00000000      -0.00000000 </v>
    <v>        0.00000000       0.50000000       0.00000000 </v>
    <v>       -0.00000000       0.00000000       0.50000000 </v>
   </varray>
  </structure>
  <varray name="forces">
   <v>       -0.00000000      -0.00000000      -0.00000000 </v>
   <v>        0.00000000      -0.00000000      -0.00000000 </v>
   <v>        0.00000000      -0.00000000      -0.00000000 </v>
   <v>        0.00000000      -0.00000000       0.00000000 </v>
   <v>       -0.00000000      -0.00000000       0.00000000 </v>
   <v>        0.00000000      -0.00000000       0.00000000 </v>
   <v>        0.00000000       0.00000000      -0.00000000 </v>
   <v>       -0.00000000       0.00000000      -0.00000000 </v>
  </varray>
  <varray name="stress">
   <v>       44.54264280      -0.00000000      -0.00000000 </v>
   <v>       -0.00000000      44.54264280       0.00000000 </v>
   <v>       -0.00000000       0.00000000      44.54264280 </v>
  </varray>
  <energy>
   <i name="e_fr_energy">          -47.74125261 </i>
   <i name="e_wo_entrp">          -47.74125261 </i>
   <i name="e_0_energy">          -47.74125261 </i>
  </energy>
 </calculation>
 <calculation>
  <scstep>
   <energy>
    <i name="e_fr_energy">          -47.77177158 </i>
    <i name="e_wo_entrp">          -47.77177158 </i>
    <i name="e_0_energy">          -47.77177158 </i>
   </energy>
  </scstep>
  <structure>
   <crystal>
    <varray name="basis">
     <v>        4.25310466      -0.00000000      -0.00000000 </v>
     <v>       -0.00000000       4.25310466       0.00000000 </v>
     <v>       -0.00000000       0.00000000       4.25310466 </v>
    </varray>
    <i name="volume">       76.93398143 </i>
    <varray name="rec_basis">
     <v>        0.23512236       0.00000000       0.00000000 </v>
     <v>        0.00000000       0.23512236      -0.00000000 </v>
     <v>        0.00000000      -0.00000000       0.23512236 </v>
    </varray>
   </crystal>
   <varray name="positions">
    <v>       -0.00000000      -0.00000000      -0.00000000 </v>
    <v>        0.00000000       0.50000000       0.50000000 </v>
    <v>        0.50000000      -0.00000000       0.50000000 </v>
    <v>        0.50000000       0.50000000       0.00000000 </v>
    <v>        0.50000000       0.50000000       0.50000000 </v>
    <v>        0.50000000      -0.00000000       0.00000000 </v>
    <v>        0.00000000       0.50000000      -0.00000000 </v>
    <v>       -0.00000000       0.00000000       0.50000000 </v>
   </varray>
  </structure>
  <varray name="forces">
   <v>       -0.00000000      -0.00000000      -0.00000000 </v>
   <v>       -0.00000000       0.00000000       0.00000000 </v>
   <v>        0.00000000      -0.00000000       0.00000000 </v>
   <v>        0.00000000       0.00000000      -0.00000000 </v>
   <v>        0.00000000       0.00000000       0.00000000 </v>
   <v>        0.00000000      -0.00000000      -0.00000000 </v>
   <v>       -0.00000000       0.00000000      -0.00000000 </v>
   <v>       -0.00000000      -0.00000000       0.00000000 </v>
  </varray>
  <varray name="stress">
   <v>        2.16530196       0.00000000      -0.00000000 </v>
   <v>        0.00000000       2.16530196       0.00000000 </v>
   <v>       -0.00000000       0.00000000       2.16530196 </v>
  </varray>
  <energy>
   <i name="e_fr_energy">          -47.77177158 </i>
   <i name="e_wo_entrp">          -47.77177158 </i>
   <i name="e_0_energy">          -47.77177158 </i>
  </energy>
 </calculation>
 <calculation>
  <scstep>
   <energy>
    <i name="e_fr_energy">          -47.77185125 </i>
    <i name="e_wo_entrp">          -47.77185125 </i>
    <i name="e_0_energy">          -47.77185125 </i>
   </energy>
  </scstep>
  <structure>
   <crystal>
    <varray name="basis">
     <v>        4.25518156      -0.00000000      -0.00000000 </v>
     <v>       -0.00000000       4.25518156       0.00000000 </v>
     <v>       -0.00000000       0.00000000       4.25518156 </v>
    </varray>
    <i name="volume">       77.04674301 </i>
    <varray name="rec_basis">
     <v>        0.23500760       0.00000000       0.00000000 </v>
     <v>        0.00000000       0.23500760      -0.00000000 </v>
     <v>        0.00000000      -0.00000000       0.23500760 </v>
    </varray>
   </crystal>
   <varray name="positions">
    <v>       -0.00000000      -0.00000000      -0.00000000 </v>
    <v>       -0.00000000       0.50000000       0.50000000 </v>
    <v>        0.50000000      -0.00000000       0.50000000 </v>
    <v>        0.50000000       0.50000000      -0.00000000 </v>
    <v>        0.50000000       0.50000000       0.50000000 </v>
    <v>        0.50000000      -0.00000000      -0.00000000 </v>
    <v>       -0.00000000       0.50000000      -0.00000000 </v>
    <v>       -0.00000000      -0.00000000       0.50000000 </v>
   </varray>
  </structure>
  <varray name="forces">
   <v>       -0.00000000      -0.00000000      -0.00000000 </v>
   <v>       -0.00000000       0.00000000       0.00000000 </v>
   <v>        0.00000000      -0.00000000       0.00000000 </v>
   <v>        0.00000000       0.00000000      -0.00000000 </v>
   <v>        0.00000000       0.00000000       0.00000000 </v>
   <v>        0.00000000      -0.00000000      -0.00000000 </v>
   <v>       -0.00000000       0.00000000      -0.00000000 </v>
   <v>       -0.00000000      -0.00000000       0.00000000 </v>
  </varray>
  <varray name="stress">
   <v>        0.10119195       0.00000000       0.00000000 </v>
   <v>        0.00000000       0.10119195       0.00000000 </v>
   <v>        0.00000000       0.00000000       0.10119195 </v>
  </varray>
  <energy>
   <i name="e_fr_energy">          -47.77185125 </i>
   <i name="e_wo_entrp">          -47.77185125 </i>
   <i name="e_0_energy">          -47.77185125 </i>
  </energy>
 </calculation>
 <structure name="finalpos">
  <crystal>
   <varray name="basis">
    <v>        4.25518156      -0.00000000      -0.00000000 </v>
    <v>       -0.00000000       4.25518156       0.00000000 </v>
    <v>       -0.00000000       0.00000000       4.25518156 </v>
   </varray>
   <i name="volume">       77.04674301 </i>
   <varray name="rec_basis">
    <v>        0.23500760       0.00000000       0.00000000 </v>
    <v>        0.00000000       0.23500760      -0.00000000 </v>
    <v>        0.00000000      -0.00000000       0.23500760 </v>
   </varray>
  </crystal>
  <varray name="positions">
   <v>       -0.00000000      -0.00000000      -0.00000000 </v>
   <v>       -0.00000000       0.50000000       0.50000000 </v>
   <v>        0.50000000      -0.00000000       0.50000000 </v>
   <v>        0.50000000       0.50000000      -0.00000000 </v>
   <v>        0.50000000       0.50000000       0.50000000 </v>
   <v>        0.50000000      -0.00000000      -0.00000000 </v>
   <v>       -0.00000000       0.50000000      -0.00000000 </v>
   <v>       -0.00000000      -0.00000000       0.50000000 </v>
  </varray>
 </structure>
</modeling>