Mg4O4
   1.00000000
   4.211200000   0.000000000   0.000000000
   0.000000000   4.211200000   0.000000000
   0.000000000   0.000000000   4.211200000
  Mg  O
  4  4
Direct configuration=     1
   0.000000000   0.000000000   0.000000000
   0.000000000   0.500000000   0.500000000
   0.500000000   0.000000000   0.500000000
   0.500000000   0.500000000   0.000000000
   0.500000000   0.500000000   0.500000000
   0.500000000   0.000000000   0.000000000
   0.000000000   0.500000000   0.000000000
   0.000000000   0.000000000   0.500000000
Direct configuration=     2
   0.000000000   0.000000000   0.000000000
   0.000000000   0.500000000   0.500000000
   0.500000000   0.000000000   0.500000000
   0.500000000   0.500000000   0.000000000
   0.500000000   0.500000000   0.500000000
   0.500000000   0.000000000   0.000000000
   0.000000000   0.500000000   0.000000000
   0.000000000   0.000000000   0.500000000
Direct configuration=     3
   0.000000000   0.000000000   0.000000000
   0.000000000   0.500000000   0.500000000
   0.500000000   0.000000000   0.500000000
   0.500000000   0.500000000   0.000000000
   0.500000000   0.500000000   0.500000000
   0.500000000   0.000000000   0.000000000
   0.000000000   0.500000000   0.000000000
   0.000000000   0.000000000   0.500000000
