Mg4O4
   1.00000000
   4.213254304   0.000000000  -0.000000000
   0.000000000   4.213254304  -0.000000000
  -0.000000000  -0.000000000   4.213254304
  Mg  O
  4  4
Direct configuration=     1
   0.000000000   0.000000000   0.000000000
   0.000000000   0.500000000   0.500000000
   0.500000000   0.000000000   0.500000000
   0.500000000   0.500000000   0.000000000
   0.500000000   0.500000000   0.500000000
   0.500000000   0.000000000   0.000000000
   0.000000000   0.500000000   0.000000000
   0.000000000   0.000000000   0.500000000
Mg4O4
   1.00000000
   4.253104655  -0.000000000  -0.000000000
  -0.000000000   4.253104655   0.000000000
  -0.000000000   0.000000000   4.253104655
  Mg  O
  4  4
Direct configuration=     2
   0.000000000   0.000000000   0.000000000
   0.000000000   0.500000000   0.500000000
   0.500000000   0.000000000   0.500000000
   0.500000000   0.500000000   0.000000000
   0.500000000   0.500000000   0.500000000
   0.500000000   0.000000000   0.000000000
   0.000000000   0.500000000   0.000000000
   0.000000000   0.000000000   0.500000000
Mg4O4
   1.00000000
   4.255181556  -0.000000000  -0.000000000
  -0.000000000   4.255181556   0.000000000
  -0.000000000   0.000000000   4.255181556
  Mg  O
  4  4
Direct configuration=     3
   1.000000000   1.000000000   1.000000000
   1.000000000   0.500000000   0.500000000
   0.500000000   1.000000000   0.500000000
   0.500000000   0.500000000   1.000000000
   0.500000000   0.500000000   0.500000000
   0.500000000   1.000000000   1.000000000
   1.000000000   0.500000000   1.000000000
   1.000000000   1.000000000   0.500000000
