Mg4O4
   1.00000000
   4.255181556  -0.000000000  -0.000000000
  -0.000000000   4.255181556   0.000000000
  -0.000000000   0.000000000   4.255181556
  Mg  O
  4  4
Direct configuration=     1
   1.000000000   1.000000000   1.000000000
   1.000000000   0.500000000   0.500000000
   0.500000000   1.000000000   0.500000000
   0.500000000   0.500000000   1.000000000
   0.500000000   0.500000000   0.500000000
   0.500000000   1.000000000   1.000000000
   1.000000000   0.500000000   1.000000000
   1.000000000   1.000000000   0.500000000
Direct configuration=     2
   0.003525114   1.000000000   1.000000000
   1.000000000   0.500000000   0.500000000
   0.500000000   1.000000000   0.500000000
   0.500000000   0.500000000   1.000000000
   0.500000000   0.500000000   0.500000000
   0.500000000   1.000000000   1.000000000
   1.000000000   0.500000000   1.000000000
   1.000000000   1.000000000   0.500000000
Direct configuration=     3
   0.996474886   1.000000000   1.000000000
   1.000000000   0.500000000   0.500000000
   0.500000000   1.000000000   0.500000000
   0.500000000   0.500000000   1.000000000
   0.500000000   0.500000000   0.500000000
   0.500000000   1.000000000   1.000000000
   1.000000000   0.500000000   1.000000000
   1.000000000   1.000000000   0.500000000
Direct configuration=     4
   1.000000000   1.000000000   1.000000000
   1.000000000   0.500000000   0.500000000
   0.500000000   1.000000000   0.500000000
   0.500000000   0.500000000   1.000000000
   0.503525114   0.500000000   0.500000000
   0.500000000   1.000000000   1.000000000
   1.000000000   0.500000000   1.000000000
   1.000000000   1.000000000   0.500000000
Direct configuration=     5
   1.000000000   1.000000000   1.000000000
   1.000000000   0.500000000   0.500000000
   0.500000000   1.000000000   0.500000000
   0.500000000   0.500000000   1.000000000
   0.496474886   0.500000000   0.500000000
   0.500000000   1.000000000   1.000000000
   1.000000000   0.500000000   1.000000000
   1.000000000   1.000000000   0.500000000
