Pb4Te4
   1.00000000
   6.476187657  -0.000000000   0.000000000
  -0.000000000   6.476187657  -0.000000000
   0.000000000  -0.000000000   6.476187657
  Pb  Te
  4  4
Direct configuration=     1
   0.000000000   0.000000000   0.000000000
   0.000000000   0.500000000   0.500000000
   0.500000000   0.000000000   0.500000000
   0.500000000   0.500000000   0.000000000
   0.500000000   0.500000000   0.500000000
   0.500000000   0.000000000   0.000000000
   0.000000000   0.500000000   0.000000000
   0.000000000   0.000000000   0.500000000
Direct configuration=     2
   0.003088237   0.000000000   0.000000000
   0.000000000   0.500000000   0.500000000
   0.500000000   0.000000000   0.500000000
   0.500000000   0.500000000   0.000000000
   0.500000000   0.500000000   0.500000000
   0.500000000   0.000000000   0.000000000
   0.000000000   0.500000000   0.000000000
   0.000000000   0.000000000   0.500000000
Direct configuration=     3
   0.996911763   0.000000000   0.000000000
   0.000000000   0.500000000   0.500000000
   0.500000000   0.000000000   0.500000000
   0.500000000   0.500000000   0.000000000
   0.500000000   0.500000000   0.500000000
   0.500000000   0.000000000   0.000000000
   0.000000000   0.500000000   0.000000000
   0.000000000   0.000000000   0.500000000
Direct configuration=     4
   0.000000000   0.000000000   0.000000000
   0.000000000   0.500000000   0.500000000
   0.500000000   0.000000000   0.500000000
   0.500000000   0.500000000   0.000000000
   0.503088237   0.500000000   0.500000000
   0.500000000   0.000000000   0.000000000
   0.000000000   0.500000000   0.000000000
   0.000000000   0.000000000   0.500000000
Direct configuration=     5
   0.000000000   0.000000000   0.000000000
   0.000000000   0.500000000   0.500000000
   0.500000000   0.000000000   0.500000000
   0.500000000   0.500000000   0.000000000
   0.496911763   0.500000000   0.500000000
   0.500000000   0.000000000   0.000000000
   0.000000000   0.500000000   0.000000000
   0.000000000   0.000000000   0.500000000
