<?xml version='1.0' encoding='utf-8'?>
<modeling>
 <generator>
  <i name="program" type="string">vasp </i>
  <i name="version" type="string">mace-ase  </i>
  <i name="platform" type="string">mace-ase</i>
  <i name="date" type="string">2026 04 13</i>
  <i name="time" type="string">02:57:20</i>
 </generator>
 <incar>
  <i name="NSW" type="int">   100</i>
  <i name="ISIF" type="int">   3</i>
  <i name="EDIFFG">      -0.01000000</i>
  <i name="PSTRESS" type="int">   15</i>
 </incar>
 <parameters>
  <separator name="electronic">
   <i type="int" name="NELM">   60</i>
   <i type="logical" name="LCHIMAG"> F  </i>
   <i name="EDIFF">      0.00010000</i>
  </separator>
  <separator name="ionic">
   <i type="int" name="NSW">   100</i>
   <i type="int" name="IBRION">   -1</i>
   <i type="int" name="ISIF">   3</i>
   <i name="EDIFFG">      -0.01000000</i>
   <i type="int" name="LORBIT">   0</i>
  </separator>
 </parameters>
 <atominfo>
  <atoms>      8 </atoms>
  <types>      2 </types>
  <array name="atoms">
   <dimension dim="1">ion</dimension>
   <field type="string">element</field>
   <field type="int">atomtype</field>
   <set>
    <rc>
     <c>Pb</c>
     <c>   1</c>
    </rc>
    <rc>
     <c>Pb</c>
     <c>   1</c>
    </rc>
    <rc>
     <c>Pb</c>
     <c>   1</c>
    </rc>
    <rc>
     <c>Pb</c>
     <c>   1</c>
    </rc>
    <rc>
     <c>Te</c>
     <c>   2</c>
    </rc>
    <rc>
     <c>Te</c>
     <c>   2</c>
    </rc>
    <rc>
     <c>Te</c>
     <c>   2</c>
    </rc>
    <rc>
     <c>Te</c>
     <c>   2</c>
    </rc>
   </set>
  </array>
  <array name="atomtypes">
   <dimension dim="1">type</dimension>
   <field type="int">atomspertype</field>
   <field type="string">element</field>
   <field>mass</field>
   <field>valence</field>
   <field type="string">pseudopotential</field>
   <set>
    <rc>
     <c>      4</c>
     <c>Pb</c>
     <c>      207.20000000</c>
     <c>       0.00000000</c>
     <c>  PAW_PBE Pb (MACE)                    </c>
    </rc>
    <rc>
     <c>      4</c>
     <c>Te</c>
     <c>      127.60000000</c>
     <c>       0.00000000</c>
     <c>  PAW_PBE Te (MACE)                    </c>
    </rc>
   </set>
  </array>
 </atominfo>
 <structure name="initialpos">
  <crystal>
   <varray name="basis">
    <v>        6.46280010       0.00000000       0.00000000 </v>
    <v>        0.00000000       6.46280010       0.00000000 </v>
    <v>        0.00000000       0.00000000       6.46280010 </v>
   </varray>
   <i name="volume">      269.93684533 </i>
   <varray name="rec_basis">
    <v>        0.15473169      -0.00000000      -0.00000000 </v>
    <v>       -0.00000000       0.15473169      -0.00000000 </v>
    <v>       -0.00000000      -0.00000000       0.15473169 </v>
   </varray>
  </crystal>
  <varray name="positions">
   <v>       -0.00000000       0.00000000       0.00000000 </v>
   <v>        0.00000000       0.50000000       0.50000000 </v>
   <v>        0.50000000       0.00000000       0.50000000 </v>
   <v>        0.50000000       0.50000000      -0.00000000 </v>
   <v>        0.50000000       0.50000000       0.50000000 </v>
   <v>        0.50000000      -0.00000000       0.00000000 </v>
   <v>        0.00000000       0.50000000      -0.00000000 </v>
   <v>       -0.00000000       0.00000000       0.50000000 </v>
  </varray>
 </structure>
 <calculation>
  <scstep>
   <energy>
    <i name="e_fr_energy">          -30.43923040 </i>
    <i name="e_wo_entrp">          -30.43923040 </i>
    <i name="e_0_energy">          -30.43923040 </i>
   </energy>
  </scstep>
  <structure>
   <crystal>
    <varray name="basis">
     <v>        6.46280010       0.00000000       0.00000000 </v>
     <v>        0.00000000       6.46280010       0.00000000 </v>
     <v>        0.00000000       0.00000000       6.46280010 </v>
    </varray>
    <i name="volume">      269.93684533 </i>
    <varray name="rec_basis">
     <v>        0.15473169      -0.00000000      -0.00000000 </v>
     <v>       -0.00000000       0.15473169      -0.00000000 </v>
     <v>       -0.00000000      -0.00000000       0.15473169 </v>
    </varray>
   </crystal>
   <varray name="positions">
    <v>       -0.00000000       0.00000000       0.00000000 </v>
    <v>        0.00000000       0.50000000       0.50000000 </v>
    <v>        0.50000000       0.00000000       0.50000000 </v>
    <v>        0.50000000       0.50000000      -0.00000000 </v>
    <v>        0.50000000       0.50000000       0.50000000 </v>
    <v>        0.50000000      -0.00000000       0.00000000 </v>
    <v>        0.00000000       0.50000000      -0.00000000 </v>
    <v>       -0.00000000       0.00000000       0.50000000 </v>
   </varray>
  </structure>
  <varray name="forces">
   <v>        0.00000000       0.00000000      -0.00000000 </v>
   <v>        0.00000000      -0.00000000       0.00000000 </v>
   <v>       -0.00000000       0.00000000       0.00000000 </v>
   <v>        0.00000000      -0.00000000      -0.00000000 </v>
   <v>       -0.00000000      -0.00000000      -0.00000000 </v>
   <v>       -0.00000000       0.00000000      -0.00000000 </v>
   <v>        0.00000000      -0.00000000      -0.00000000 </v>
   <v>       -0.00000000       0.00000000      -0.00000000 </v>
  </varray>
  <varray name="stress">
   <v>       18.10703028      -0.00000000       0.00000000 </v>
   <v>       -0.00000000      18.10703028      -0.00000000 </v>
   <v>        0.00000000      -0.00000000      18.10703028 </v>
  </varray>
  <energy>
   <i name="e_fr_energy">          -30.43923040 </i>
   <i name="e_wo_entrp">          -30.43923040 </i>
   <i name="e_0_energy">          -30.43923040 </i>
  </energy>
 </calculation>
 <calculation>
  <scstep>
   <energy>
    <i name="e_fr_energy">          -30.45660539 </i>
    <i name="e_wo_entrp">          -30.45660539 </i>
    <i name="e_0_energy">          -30.45660539 </i>
   </energy>
  </scstep>
  <structure>
   <crystal>
    <varray name="basis">
     <v>        6.47618766      -0.00000000       0.00000000 </v>
     <v>       -0.00000000       6.47618766      -0.00000000 </v>
     <v>        0.00000000      -0.00000000       6.47618766 </v>
    </varray>
    <i name="volume">      271.61782906 </i>
    <varray name="rec_basis">
     <v>        0.15441183       0.00000000      -0.00000000 </v>
     <v>        0.00000000       0.15441183       0.00000000 </v>
     <v>       -0.00000000       0.00000000       0.15441183 </v>
    </varray>
   </crystal>
   <varray name="positions">
    <v>        0.00000000       0.00000000      -0.00000000 </v>
    <v>        0.00000000       0.50000000       0.50000000 </v>
    <v>        0.50000000       0.00000000       0.50000000 </v>
    <v>        0.50000000       0.50000000      -0.00000000 </v>
    <v>        0.50000000       0.50000000       0.50000000 </v>
    <v>        0.50000000       0.00000000      -0.00000000 </v>
    <v>        0.00000000       0.50000000      -0.00000000 </v>
    <v>       -0.00000000       0.00000000       0.50000000 </v>
   </varray>
  </structure>
  <varray name="forces">
   <v>       -0.00000000      -0.00000000      -0.00000000 </v>
   <v>       -0.00000000       0.00000000       0.00000000 </v>
   <v>        0.00000000      -0.00000000       0.00000000 </v>
   <v>        0.00000000       0.00000000      -0.00000000 </v>
   <v>        0.00000000       0.00000000       0.00000000 </v>
   <v>        0.00000000      -0.00000000      -0.00000000 </v>
   <v>       -0.00000000       0.00000000      -0.00000000 </v>
   <v>       -0.00000000      -0.00000000       0.00000000 </v>
  </varray>
  <varray name="stress">
   <v>       15.02943010      -0.00000000      -0.00000000 </v>
   <v>       -0.00000000      15.02943010       0.00000000 </v>
   <v>       -0.00000000       0.00000000      15.02943010 </v>
  </varray>
  <energy>
   <i name="e_fr_energy">          -30.45660539 </i>
   <i name="e_wo_entrp">          -30.45660539 </i>
   <i name="e_0_energy">          -30.45660539 </i>
  </energy>
 </calculation>
 <structure name="finalpos">
  <crystal>
   <varray name="basis">
    <v>        6.47618766      -0.00000000       0.00000000 </v>
    <v>       -0.00000000       6.47618766      -0.00000000 </v>
    <v>        0.00000000      -0.00000000       6.47618766 </v>
   </varray>
   <i name="volume">      271.61782906 </i>
   <varray name="rec_basis">
    <v>        0.15441183       0.00000000      -0.00000000 </v>
    <v>        0.00000000       0.15441183       0.00000000 </v>
    <v>       -0.00000000       0.00000000       0.15441183 </v>
   </varray>
  </crystal>
  <varray name="positions">
   <v>        0.00000000       0.00000000      -0.00000000 </v>
   <v>        0.00000000       0.50000000       0.50000000 </v>
   <v>        0.50000000       0.00000000       0.50000000 </v>
   <v>        0.50000000       0.50000000      -0.00000000 </v>
   <v>        0.50000000       0.50000000       0.50000000 </v>
   <v>        0.50000000       0.00000000      -0.00000000 </v>
   <v>        0.00000000       0.50000000      -0.00000000 </v>
   <v>       -0.00000000       0.00000000       0.50000000 </v>
  </varray>
 </structure>
</modeling>