Pb4Te4
   1.00000000
   6.462800095   0.000000000   0.000000000
   0.000000000   6.462800095   0.000000000
   0.000000000   0.000000000   6.462800095
  Pb  Te
  4  4
Direct configuration=     1
   0.000000000   0.000000000   0.000000000
   0.000000000   0.500000000   0.500000000
   0.500000000   0.000000000   0.500000000
   0.500000000   0.500000000   0.000000000
   0.500000000   0.500000000   0.500000000
   0.500000000   0.000000000   0.000000000
   0.000000000   0.500000000   0.000000000
   0.000000000   0.000000000   0.500000000
Pb4Te4
   1.00000000
   6.476187657  -0.000000000   0.000000000
  -0.000000000   6.476187657  -0.000000000
   0.000000000  -0.000000000   6.476187657
  Pb  Te
  4  4
Direct configuration=     2
   0.000000000   0.000000000   0.000000000
   0.000000000   0.500000000   0.500000000
   0.500000000   0.000000000   0.500000000
   0.500000000   0.500000000   0.000000000
   0.500000000   0.500000000   0.500000000
   0.500000000   0.000000000   0.000000000
   0.000000000   0.500000000   0.000000000
   0.000000000   0.000000000   0.500000000
