Pb4Te4
   1.00000000
   6.463961629  -0.000000000   0.000000000
  -0.000000000   6.463961629  -0.000000000
   0.000000000  -0.000000000   6.463961629
  Pb  Te
  4  4
Direct configuration=     1
   0.000000000   0.000000000   0.000000000
   0.000000000   0.500000000   0.500000000
   0.500000000   0.000000000   0.500000000
   0.500000000   0.500000000   0.000000000
   0.500000000   0.500000000   0.500000000
   0.500000000   0.000000000   0.000000000
   0.000000000   0.500000000   0.000000000
   0.000000000   0.000000000   0.500000000
Pb4Te4
   1.00000000
   6.498742846  -0.000000000   0.000000000
  -0.000000000   6.498742846   0.000000000
   0.000000000   0.000000000   6.498742846
  Pb  Te
  4  4
Direct configuration=     2
   0.000000000   0.000000000   0.000000000
   0.000000000   0.500000000   0.500000000
   0.500000000   0.000000000   0.500000000
   0.500000000   0.500000000   0.000000000
   0.500000000   0.500000000   0.500000000
   0.500000000   0.000000000   0.000000000
   0.000000000   0.500000000   0.000000000
   0.000000000   0.000000000   0.500000000
