Pb4Te4
   1.00000000
   6.462000000   0.000000000   0.000000000
   0.000000000   6.462000000   0.000000000
   0.000000000   0.000000000   6.462000000
  Pb  Te
  4  4
Direct configuration=     1
   0.000000000   0.000000000   0.000000000
   0.000000000   0.500000000   0.500000000
   0.500000000   0.000000000   0.500000000
   0.500000000   0.500000000   0.000000000
   0.500000000   0.500000000   0.500000000
   0.500000000   0.000000000   0.000000000
   0.000000000   0.500000000   0.000000000
   0.000000000   0.000000000   0.500000000
Direct configuration=     2
   0.000000000   0.000000000   0.000000000
   0.000000000   0.500000000   0.500000000
   0.500000000   0.000000000   0.500000000
   0.500000000   0.500000000   0.000000000
   0.500000000   0.500000000   0.500000000
   0.500000000   0.000000000   0.000000000
   0.000000000   0.500000000   0.000000000
   0.000000000   0.000000000   0.500000000
