<?xml version='1.0' encoding='utf-8'?>
<modeling>
 <generator>
  <i name="program" type="string">vasp </i>
  <i name="version" type="string">mace-ase  </i>
  <i name="platform" type="string">mace-ase</i>
  <i name="date" type="string">2026 04 13</i>
  <i name="time" type="string">02:59:38</i>
 </generator>
 <incar>
  <i name="SYSTEM" type="string">Pt</i>
  <i name="NSW" type="int">   100</i>
  <i name="EDIFFG">      -0.01000000</i>
  <i name="IBRION" type="int">   1</i>
  <i name="POTIM">      0.80000000</i>
  <i name="ISIF" type="int">   2</i>
  <i name="IMAGES" type="int">   3</i>
  <i name="SPRING" type="int">   -5</i>
 </incar>
 <parameters>
  <separator name="electronic">
   <i type="int" name="NELM">   60</i>
   <i type="logical" name="LCHIMAG"> F  </i>
   <i name="EDIFF">      0.00010000</i>
  </separator>
  <separator name="ionic">
   <i type="int" name="NSW">   100</i>
   <i type="int" name="IBRION">   1</i>
   <i type="int" name="ISIF">   2</i>
   <i name="EDIFFG">      -0.01000000</i>
   <i type="int" name="LORBIT">   0</i>
  </separator>
 </parameters>
 <atominfo>
  <atoms>     17 </atoms>
  <types>      1 </types>
  <array name="atoms">
   <dimension dim="1">ion</dimension>
   <field type="string">element</field>
   <field type="int">atomtype</field>
   <set>
    <rc>
     <c>Pt</c>
     <c>   1</c>
    </rc>
    <rc>
     <c>Pt</c>
     <c>   1</c>
    </rc>
    <rc>
     <c>Pt</c>
     <c>   1</c>
    </rc>
    <rc>
     <c>Pt</c>
     <c>   1</c>
    </rc>
    <rc>
     <c>Pt</c>
     <c>   1</c>
    </rc>
    <rc>
     <c>Pt</c>
     <c>   1</c>
    </rc>
    <rc>
     <c>Pt</c>
     <c>   1</c>
    </rc>
    <rc>
     <c>Pt</c>
     <c>   1</c>
    </rc>
    <rc>
     <c>Pt</c>
     <c>   1</c>
    </rc>
    <rc>
     <c>Pt</c>
     <c>   1</c>
    </rc>
    <rc>
     <c>Pt</c>
     <c>   1</c>
    </rc>
    <rc>
     <c>Pt</c>
     <c>   1</c>
    </rc>
    <rc>
     <c>Pt</c>
     <c>   1</c>
    </rc>
    <rc>
     <c>Pt</c>
     <c>   1</c>
    </rc>
    <rc>
     <c>Pt</c>
     <c>   1</c>
    </rc>
    <rc>
     <c>Pt</c>
     <c>   1</c>
    </rc>
    <rc>
     <c>Pt</c>
     <c>   1</c>
    </rc>
   </set>
  </array>
  <array name="atomtypes">
   <dimension dim="1">type</dimension>
   <field type="int">atomspertype</field>
   <field type="string">element</field>
   <field>mass</field>
   <field>valence</field>
   <field type="string">pseudopotential</field>
   <set>
    <rc>
     <c>     17</c>
     <c>Pt</c>
     <c>      195.08400000</c>
     <c>       0.00000000</c>
     <c>  PAW_PBE Pt (MACE)                    </c>
    </rc>
   </set>
  </array>
 </atominfo>
 <structure name="initialpos">
  <crystal>
   <varray name="basis">
    <v>        5.62024000       0.00000000       0.00000000 </v>
    <v>        0.00000000       5.62024000       0.00000000 </v>
    <v>        0.00000000       0.00000000      16.86072000 </v>
   </varray>
   <i name="volume">      532.58120922 </i>
   <varray name="rec_basis">
    <v>        0.17792834       0.00000000       0.00000000 </v>
    <v>        0.00000000       0.17792834       0.00000000 </v>
    <v>        0.00000000       0.00000000       0.05930945 </v>
   </varray>
  </crystal>
  <varray name="positions">
   <v>        0.00140963       0.00141093      -0.00615637 </v>
   <v>        0.00138879       0.49861121      -0.00628342 </v>
   <v>        0.49861210       0.00138790      -0.00628417 </v>
   <v>        0.49858907       0.49859037      -0.00615637 </v>
   <v>        0.25000586       0.24999414       0.11332567 </v>
   <v>        0.74998710       0.24998953       0.11410050 </v>
   <v>        0.25001047       0.75001290       0.11410050 </v>
   <v>        0.74999632       0.75000368       0.10874840 </v>
   <v>       -0.00270821      -0.00268690       0.23445587 </v>
   <v>        0.00800357       0.49199643       0.23363972 </v>
   <v>        0.49195739       0.00804261       0.23368319 </v>
   <v>        0.50268690       0.50270821       0.23445587 </v>
   <v>        0.41030517       0.08969483       0.42812076 </v>
   <v>        0.75006134       0.25006455       0.34561135 </v>
   <v>        0.24993545       0.74993866       0.34561135 </v>
   <v>        0.74999393       0.75000607       0.35945398 </v>
   <v>        0.08981740       0.41018260       0.42817144 </v>
  </varray>
 </structure>
 <calculation>
  <scstep>
   <energy>
    <i name="e_fr_energy">          -93.72613218 </i>
    <i name="e_wo_entrp">          -93.72613218 </i>
    <i name="e_0_energy">          -93.72613218 </i>
   </energy>
  </scstep>
  <structure>
   <crystal>
    <varray name="basis">
     <v>        5.62024000       0.00000000       0.00000000 </v>
     <v>        0.00000000       5.62024000       0.00000000 </v>
     <v>        0.00000000       0.00000000      16.86072000 </v>
    </varray>
    <i name="volume">      532.58120922 </i>
    <varray name="rec_basis">
     <v>        0.17792834       0.00000000       0.00000000 </v>
     <v>        0.00000000       0.17792834       0.00000000 </v>
     <v>        0.00000000       0.00000000       0.05930945 </v>
    </varray>
   </crystal>
   <varray name="positions">
    <v>        0.00140963       0.00141093      -0.00615637 </v>
    <v>        0.00138879       0.49861121      -0.00628342 </v>
    <v>        0.49861210       0.00138790      -0.00628417 </v>
    <v>        0.49858907       0.49859037      -0.00615637 </v>
    <v>        0.25000586       0.24999414       0.11332567 </v>
    <v>        0.74998710       0.24998953       0.11410050 </v>
    <v>        0.25001047       0.75001290       0.11410050 </v>
    <v>        0.74999632       0.75000368       0.10874840 </v>
    <v>       -0.00270821      -0.00268690       0.23445587 </v>
    <v>        0.00800357       0.49199643       0.23363972 </v>
    <v>        0.49195739       0.00804261       0.23368319 </v>
    <v>        0.50268690       0.50270821       0.23445587 </v>
    <v>        0.41030517       0.08969483       0.42812076 </v>
    <v>        0.75006134       0.25006455       0.34561135 </v>
    <v>        0.24993545       0.74993866       0.34561135 </v>
    <v>        0.74999393       0.75000607       0.35945398 </v>
    <v>        0.08981740       0.41018260       0.42817144 </v>
   </varray>
  </structure>
  <varray name="forces">
   <v>        0.02103635       0.02103717       0.29150532 </v>
   <v>        0.00922747      -0.00922747       0.28777574 </v>
   <v>       -0.00925574       0.00925574       0.28721985 </v>
   <v>       -0.02103717      -0.02103635       0.29150532 </v>
   <v>       -0.00001009       0.00001009      -0.08318169 </v>
   <v>       -0.00013832      -0.00013677       0.01392773 </v>
   <v>        0.00013677       0.00013832       0.01392773 </v>
   <v>       -0.00006549       0.00006549       0.19311963 </v>
   <v>       -0.11559384      -0.11543814      -0.15443279 </v>
   <v>       -0.17276271       0.17276271      -0.17081371 </v>
   <v>        0.17322126      -0.17322126      -0.17154970 </v>
   <v>        0.11543814       0.11559384      -0.15443279 </v>
   <v>       -0.09745054       0.09745054      -0.27083415 </v>
   <v>        0.00016186       0.00002945       0.09521353 </v>
   <v>       -0.00002945      -0.00016186       0.09521353 </v>
   <v>       -0.00015420       0.00015420      -0.29249628 </v>
   <v>        0.09727571      -0.09727571      -0.27166725 </v>
  </varray>
  <varray name="stress">
   <v>      -44.54626894      12.23949968      -0.00049098 </v>
   <v>       12.23949968     -44.54626894       0.00049098 </v>
   <v>       -0.00049098       0.00049098     -21.12373097 </v>
  </varray>
  <energy>
   <i name="e_fr_energy">          -93.72613218 </i>
   <i name="e_wo_entrp">          -93.72613218 </i>
   <i name="e_0_energy">          -93.72613218 </i>
  </energy>
 </calculation>
 <calculation>
  <scstep>
   <energy>
    <i name="e_fr_energy">          -93.75290948 </i>
    <i name="e_wo_entrp">          -93.75290948 </i>
    <i name="e_0_energy">          -93.75290948 </i>
   </energy>
  </scstep>
  <structure>
   <crystal>
    <varray name="basis">
     <v>        5.62024000       0.00000000       0.00000000 </v>
     <v>        0.00000000       5.62024000       0.00000000 </v>
     <v>        0.00000000       0.00000000      16.86072000 </v>
    </varray>
    <i name="volume">      532.58120922 </i>
    <varray name="rec_basis">
     <v>        0.17792834       0.00000000       0.00000000 </v>
     <v>        0.00000000       0.17792834       0.00000000 </v>
     <v>        0.00000000       0.00000000       0.05930945 </v>
    </varray>
   </crystal>
   <varray name="positions">
    <v>        0.00152835       0.00152937      -0.00560865 </v>
    <v>        0.00144094       0.49855906      -0.00574269 </v>
    <v>        0.49856006       0.00143994      -0.00574450 </v>
    <v>        0.49847063       0.49847165      -0.00560865 </v>
    <v>        0.25000613       0.24999387       0.11316937 </v>
    <v>        0.74998654       0.24998840       0.11412667 </v>
    <v>        0.25001160       0.75001346       0.11412667 </v>
    <v>        0.74999610       0.75000390       0.10911127 </v>
    <v>       -0.00335904      -0.00333837       0.23416569 </v>
    <v>        0.00703028       0.49296972       0.23331862 </v>
    <v>        0.49293437       0.00706563       0.23336101 </v>
    <v>        0.50333837       0.50335904       0.23416569 </v>
    <v>        0.40975134       0.09024866       0.42760981 </v>
    <v>        0.75006437       0.25006321       0.34579025 </v>
    <v>        0.24993679       0.74993563       0.34579025 </v>
    <v>        0.74999354       0.75000646       0.35890439 </v>
    <v>        0.09036122       0.40963878       0.42766304 </v>
   </varray>
  </structure>
  <varray name="forces">
   <v>        0.00624543       0.00624448       0.25175757 </v>
   <v>       -0.00487974       0.00487974       0.24877509 </v>
   <v>        0.00485378      -0.00485378       0.24823006 </v>
   <v>       -0.00624448      -0.00624543       0.25175757 </v>
   <v>       -0.00003529       0.00003529      -0.01207292 </v>
   <v>       -0.00011153      -0.00008304       0.01998431 </v>
   <v>        0.00008304       0.00011153       0.01998431 </v>
   <v>       -0.00005562       0.00005562       0.15725184 </v>
   <v>       -0.05690075      -0.05688608      -0.11909431 </v>
   <v>       -0.11658189       0.11658189      -0.13042664 </v>
   <v>        0.11697065      -0.11697065      -0.13108057 </v>
   <v>        0.05688608       0.05690075      -0.11909431 </v>
   <v>       -0.07545195       0.07545195      -0.22129087 </v>
   <v>        0.00000951      -0.00003042       0.01057919 </v>
   <v>        0.00003042      -0.00000951       0.01057919 </v>
   <v>       -0.00017096       0.00017096      -0.26403305 </v>
   <v>        0.07535329      -0.07535329      -0.22180649 </v>
  </varray>
  <varray name="stress">
   <v>      -42.59599632      12.28186915      -0.00033880 </v>
   <v>       12.28186915     -42.59599632       0.00033880 </v>
   <v>       -0.00033880       0.00033880     -19.22646497 </v>
  </varray>
  <energy>
   <i name="e_fr_energy">          -93.75290948 </i>
   <i name="e_wo_entrp">          -93.75290948 </i>
   <i name="e_0_energy">          -93.75290948 </i>
  </energy>
 </calculation>
 <calculation>
  <scstep>
   <energy>
    <i name="e_fr_energy">          -93.77293685 </i>
    <i name="e_wo_entrp">          -93.77293685 </i>
    <i name="e_0_energy">          -93.77293685 </i>
   </energy>
  </scstep>
  <structure>
   <crystal>
    <varray name="basis">
     <v>        5.62024000       0.00000000       0.00000000 </v>
     <v>        0.00000000       5.62024000       0.00000000 </v>
     <v>        0.00000000       0.00000000      16.86072000 </v>
    </varray>
    <i name="volume">      532.58120922 </i>
    <varray name="rec_basis">
     <v>        0.17792834       0.00000000       0.00000000 </v>
     <v>        0.00000000       0.17792834       0.00000000 </v>
     <v>        0.00000000       0.00000000       0.05930945 </v>
    </varray>
   </crystal>
   <varray name="positions">
    <v>        0.00156992       0.00157068      -0.00505172 </v>
    <v>        0.00140866       0.49859134      -0.00519235 </v>
    <v>        0.49859238       0.00140762      -0.00519538 </v>
    <v>        0.49842932       0.49843008      -0.00505172 </v>
    <v>        0.25000617       0.24999383       0.11314266 </v>
    <v>        0.74998600       0.24998754       0.11417088 </v>
    <v>        0.25001246       0.75001400       0.11417088 </v>
    <v>        0.74999586       0.75000414       0.10945914 </v>
    <v>       -0.00373602      -0.00371653       0.23390224 </v>
    <v>        0.00625707       0.49374293       0.23302997 </v>
    <v>        0.49371113       0.00628887       0.23307116 </v>
    <v>        0.50371653       0.50373602       0.23390224 </v>
    <v>        0.40924674       0.09075326       0.42711853 </v>
    <v>        0.75006626       0.25006172       0.34581365 </v>
    <v>        0.24993828       0.74993374       0.34581365 </v>
    <v>        0.74999282       0.75000718       0.35832031 </v>
    <v>        0.09085744       0.40914256       0.42717412 </v>
   </varray>
  </structure>
  <varray name="forces">
   <v>       -0.00141187      -0.00141275       0.21306612 </v>
   <v>       -0.01167169       0.01167169       0.21085887 </v>
   <v>        0.01164672      -0.01164672       0.21035370 </v>
   <v>        0.00141275       0.00141187       0.21306612 </v>
   <v>       -0.00004352       0.00004352       0.03328805 </v>
   <v>       -0.00008984      -0.00004454       0.02431615 </v>
   <v>        0.00004454       0.00008984       0.02431615 </v>
   <v>       -0.00005178       0.00005178       0.13152850 </v>
   <v>       -0.01354311      -0.01362587      -0.08838235 </v>
   <v>       -0.07540376       0.07540376      -0.09468113 </v>
   <v>        0.07572700      -0.07572700      -0.09527285 </v>
   <v>        0.01362587       0.01354311      -0.08838235 </v>
   <v>       -0.05082530       0.05082530      -0.18462116 </v>
   <v>       -0.00005543      -0.00004752      -0.04429864 </v>
   <v>        0.00004752       0.00005543      -0.04429864 </v>
   <v>       -0.00016083       0.00016083      -0.23590454 </v>
   <v>        0.05075273      -0.05075273      -0.18495199 </v>
  </varray>
  <varray name="stress">
   <v>      -40.54230203      12.25688106      -0.00032525 </v>
   <v>       12.25688106     -40.54230203       0.00032525 </v>
   <v>       -0.00032525       0.00032525     -17.20855441 </v>
  </varray>
  <energy>
   <i name="e_fr_energy">          -93.77293685 </i>
   <i name="e_wo_entrp">          -93.77293685 </i>
   <i name="e_0_energy">          -93.77293685 </i>
  </energy>
 </calculation>
 <calculation>
  <scstep>
   <energy>
    <i name="e_fr_energy">          -93.78825833 </i>
    <i name="e_wo_entrp">          -93.78825833 </i>
    <i name="e_0_energy">          -93.78825833 </i>
   </energy>
  </scstep>
  <structure>
   <crystal>
    <varray name="basis">
     <v>        5.62024000       0.00000000       0.00000000 </v>
     <v>        0.00000000       5.62024000       0.00000000 </v>
     <v>        0.00000000       0.00000000      16.86072000 </v>
    </varray>
    <i name="volume">      532.58120922 </i>
    <varray name="rec_basis">
     <v>        0.17792834       0.00000000       0.00000000 </v>
     <v>        0.00000000       0.17792834       0.00000000 </v>
     <v>        0.00000000       0.00000000       0.05930945 </v>
    </varray>
   </crystal>
   <varray name="positions">
    <v>        0.00155938       0.00155992      -0.00451606 </v>
    <v>        0.00132073       0.49867927      -0.00466222 </v>
    <v>        0.49868032       0.00131968      -0.00466655 </v>
    <v>        0.49844008       0.49844062      -0.00451606 </v>
    <v>        0.25000608       0.24999392       0.11322635 </v>
    <v>        0.74998550       0.24998694       0.11423201 </v>
    <v>        0.25001306       0.75001450       0.11423201 </v>
    <v>        0.74999560       0.75000440       0.10978981 </v>
    <v>       -0.00383762      -0.00381985       0.23368004 </v>
    <v>        0.00568877       0.49431123       0.23279184 </v>
    <v>        0.49428269       0.00571731       0.23283173 </v>
    <v>        0.50381985       0.50383762       0.23368004 </v>
    <v>        0.40886009       0.09113991       0.42665288 </v>
    <v>        0.75006739       0.25006025       0.34570228 </v>
    <v>        0.24993975       0.74993261       0.34570228 </v>
    <v>        0.74999196       0.75000804       0.35772723 </v>
    <v>        0.09123691       0.40876309       0.42671064 </v>
   </varray>
  </structure>
  <varray name="forces">
   <v>       -0.00357474      -0.00357355       0.17789444 </v>
   <v>       -0.01282891       0.01282891       0.17640743 </v>
   <v>        0.01280427      -0.01280427       0.17596208 </v>
   <v>        0.00357355       0.00357474       0.17789444 </v>
   <v>       -0.00004127       0.00004127       0.05474104 </v>
   <v>       -0.00006929      -0.00001963       0.02666497 </v>
   <v>        0.00001963       0.00006929       0.02666497 </v>
   <v>       -0.00005077       0.00005077       0.11553762 </v>
   <v>        0.01408922       0.01395138      -0.06377223 </v>
   <v>       -0.04924651       0.04924651      -0.06604273 </v>
   <v>        0.04951546      -0.04951546      -0.06656730 </v>
   <v>       -0.01395138      -0.01408922      -0.06377223 </v>
   <v>       -0.02996397       0.02996397      -0.15883794 </v>
   <v>       -0.00006757      -0.00004533      -0.07232765 </v>
   <v>        0.00004533       0.00006757      -0.07232765 </v>
   <v>       -0.00013782       0.00013782      -0.20904250 </v>
   <v>        0.02988478      -0.02988478      -0.15907677 </v>
  </varray>
  <varray name="stress">
   <v>      -38.53186556      12.21407333      -0.00041151 </v>
   <v>       12.21407333     -38.53186556       0.00041151 </v>
   <v>       -0.00041151       0.00041151     -15.18578106 </v>
  </varray>
  <energy>
   <i name="e_fr_energy">          -93.78825833 </i>
   <i name="e_wo_entrp">          -93.78825833 </i>
   <i name="e_0_energy">          -93.78825833 </i>
  </energy>
 </calculation>
 <calculation>
  <scstep>
   <energy>
    <i name="e_fr_energy">          -93.80063073 </i>
    <i name="e_wo_entrp">          -93.80063073 </i>
    <i name="e_0_energy">          -93.80063073 </i>
   </energy>
  </scstep>
  <structure>
   <crystal>
    <varray name="basis">
     <v>        5.62024000       0.00000000       0.00000000 </v>
     <v>        0.00000000       5.62024000       0.00000000 </v>
     <v>        0.00000000       0.00000000      16.86072000 </v>
    </varray>
    <i name="volume">      532.58120922 </i>
    <varray name="rec_basis">
     <v>        0.17792834       0.00000000       0.00000000 </v>
     <v>        0.00000000       0.17792834       0.00000000 </v>
     <v>        0.00000000       0.00000000       0.05930945 </v>
    </varray>
   </crystal>
   <varray name="positions">
    <v>        0.00152905       0.00152941      -0.00401134 </v>
    <v>        0.00121163       0.49878837      -0.00416172 </v>
    <v>        0.49878939       0.00121061      -0.00416734 </v>
    <v>        0.49847059       0.49847095      -0.00401134 </v>
    <v>        0.25000594       0.24999406       0.11338166 </v>
    <v>        0.74998509       0.24998653       0.11430766 </v>
    <v>        0.25001347       0.75001491       0.11430766 </v>
    <v>        0.74999528       0.75000472       0.11011760 </v>
    <v>       -0.00371721      -0.00370160       0.23349911 </v>
    <v>        0.00526999       0.49473001       0.23260439 </v>
    <v>        0.49470451       0.00529549       0.23264295 </v>
    <v>        0.50370160       0.50371721       0.23349911 </v>
    <v>        0.40860209       0.09139791       0.42620090 </v>
    <v>        0.75006819       0.25005888       0.34549708 </v>
    <v>        0.24994112       0.74993181       0.34549708 </v>
    <v>        0.74999110       0.75000890       0.35713415 </v>
    <v>        0.09148831       0.40851169       0.42626065 </v>
   </varray>
  </structure>
  <varray name="forces">
   <v>       -0.00311713      -0.00311280       0.14681441 </v>
   <v>       -0.01125205       0.01125205       0.14595557 </v>
   <v>        0.01122736      -0.01122736       0.14558060 </v>
   <v>        0.00311280       0.00311713       0.14681441 </v>
   <v>       -0.00003368       0.00003368       0.05949850 </v>
   <v>       -0.00004860      -0.00000439       0.02718694 </v>
   <v>        0.00000439       0.00004860       0.02718694 </v>
   <v>       -0.00005019       0.00005019       0.10523791 </v>
   <v>        0.02967450       0.02951370      -0.04479272 </v>
   <v>       -0.03424361       0.03424361      -0.04447996 </v>
   <v>        0.03446965      -0.03446965      -0.04492211 </v>
   <v>       -0.02951370      -0.02967450      -0.04479272 </v>
   <v>       -0.01612701       0.01612701      -0.13943454 </v>
   <v>       -0.00006271      -0.00004379      -0.08158312 </v>
   <v>        0.00004379       0.00006271      -0.08158312 </v>
   <v>       -0.00011194       0.00011194      -0.18306547 </v>
   <v>        0.01602814      -0.01602814      -0.13962152 </v>
  </varray>
  <varray name="stress">
   <v>      -36.60774155      12.19225134      -0.00053688 </v>
   <v>       12.19225134     -36.60774155       0.00053688 </v>
   <v>       -0.00053688       0.00053688     -13.20062515 </v>
  </varray>
  <energy>
   <i name="e_fr_energy">          -93.80063073 </i>
   <i name="e_wo_entrp">          -93.80063073 </i>
   <i name="e_0_energy">          -93.80063073 </i>
  </energy>
 </calculation>
 <calculation>
  <scstep>
   <energy>
    <i name="e_fr_energy">          -93.81101649 </i>
    <i name="e_wo_entrp">          -93.81101649 </i>
    <i name="e_0_energy">          -93.81101649 </i>
   </energy>
  </scstep>
  <structure>
   <crystal>
    <varray name="basis">
     <v>        5.62024000       0.00000000       0.00000000 </v>
     <v>        0.00000000       5.62024000       0.00000000 </v>
     <v>        0.00000000       0.00000000      16.86072000 </v>
    </varray>
    <i name="volume">      532.58120922 </i>
    <varray name="rec_basis">
     <v>        0.17792834       0.00000000       0.00000000 </v>
     <v>        0.00000000       0.17792834       0.00000000 </v>
     <v>        0.00000000       0.00000000       0.05930945 </v>
    </varray>
   </crystal>
   <varray name="positions">
    <v>        0.00149885       0.00149906      -0.00353570 </v>
    <v>        0.00110235       0.49889765      -0.00368885 </v>
    <v>        0.49889860       0.00110140      -0.00369571 </v>
    <v>        0.49850094       0.49850115      -0.00353570 </v>
    <v>        0.25000580       0.24999420       0.11357442 </v>
    <v>        0.74998478       0.24998627       0.11439574 </v>
    <v>        0.25001373       0.75001522       0.11439574 </v>
    <v>        0.74999490       0.75000510       0.11045855 </v>
    <v>       -0.00342834      -0.00341520       0.23335399 </v>
    <v>        0.00493751       0.49506249       0.23246022 </v>
    <v>        0.49503987       0.00496013       0.23249748 </v>
    <v>        0.50341520       0.50342834       0.23335399 </v>
    <v>        0.40844263       0.09155737       0.42574795 </v>
    <v>        0.75006883       0.25005755       0.34523277 </v>
    <v>        0.24994245       0.74993117       0.34523277 </v>
    <v>        0.74999030       0.75000970       0.35654106 </v>
    <v>        0.09164138       0.40835862       0.42580953 </v>
   </varray>
  </structure>
  <varray name="forces">
   <v>       -0.00221405      -0.00220660       0.11943080 </v>
   <v>       -0.00912409       0.00912409       0.11910244 </v>
   <v>        0.00909892      -0.00909892       0.11880195 </v>
   <v>        0.00220660       0.00221405       0.11943080 </v>
   <v>       -0.00002304       0.00002304       0.05440664 </v>
   <v>       -0.00002885       0.00000422       0.02617151 </v>
   <v>       -0.00000422       0.00002885       0.02617151 </v>
   <v>       -0.00004898       0.00004898       0.09660863 </v>
   <v>        0.03725306       0.03709048      -0.03040821 </v>
   <v>       -0.02622983       0.02622983      -0.02896427 </v>
   <v>        0.02642079      -0.02642079      -0.02931548 </v>
   <v>       -0.03709048      -0.03725306      -0.03040821 </v>
   <v>       -0.00878151       0.00878151      -0.12274869 </v>
   <v>       -0.00005509      -0.00004728      -0.07906926 </v>
   <v>        0.00004728       0.00005509      -0.07906926 </v>
   <v>       -0.00008507       0.00008507      -0.15724388 </v>
   <v>        0.00865856      -0.00865856      -0.12289703 </v>
  </varray>
  <varray name="stress">
   <v>      -34.75233546      12.20207786      -0.00067356 </v>
   <v>       12.20207786     -34.75233546       0.00067356 </v>
   <v>       -0.00067356       0.00067356     -11.25402849 </v>
  </varray>
  <energy>
   <i name="e_fr_energy">          -93.81101649 </i>
   <i name="e_wo_entrp">          -93.81101649 </i>
   <i name="e_0_energy">          -93.81101649 </i>
  </energy>
 </calculation>
 <calculation>
  <scstep>
   <energy>
    <i name="e_fr_energy">          -93.81981533 </i>
    <i name="e_wo_entrp">          -93.81981533 </i>
    <i name="e_0_energy">          -93.81981533 </i>
   </energy>
  </scstep>
  <structure>
   <crystal>
    <varray name="basis">
     <v>        5.62024000       0.00000000       0.00000000 </v>
     <v>        0.00000000       5.62024000       0.00000000 </v>
     <v>        0.00000000       0.00000000      16.86072000 </v>
    </varray>
    <i name="volume">      532.58120922 </i>
    <varray name="rec_basis">
     <v>        0.17792834       0.00000000       0.00000000 </v>
     <v>        0.00000000       0.17792834       0.00000000 </v>
     <v>        0.00000000       0.00000000       0.05930945 </v>
    </varray>
   </crystal>
   <varray name="positions">
    <v>        0.00147388       0.00147400      -0.00308524 </v>
    <v>        0.00099918       0.49900082      -0.00323961 </v>
    <v>        0.49900163       0.00099837      -0.00324763 </v>
    <v>        0.49852600       0.49852612      -0.00308524 </v>
    <v>        0.25000572       0.24999428       0.11377963 </v>
    <v>        0.74998461       0.24998611       0.11449445 </v>
    <v>        0.25001389       0.75001539       0.11449445 </v>
    <v>        0.74999445       0.75000555       0.11082293 </v>
    <v>       -0.00300641      -0.00299592       0.23323930 </v>
    <v>        0.00464102       0.49535898       0.23235091 </v>
    <v>        0.49533914       0.00466086       0.23238697 </v>
    <v>        0.50299592       0.50300641       0.23323930 </v>
    <v>        0.40834080       0.09165920       0.42528387 </v>
    <v>        0.75006934       0.25005619       0.34493454 </v>
    <v>        0.24994381       0.74993066       0.34493454 </v>
    <v>        0.74998960       0.75001040       0.35594798 </v>
    <v>        0.09173689       0.40826311       0.42534709 </v>
   </varray>
  </structure>
  <varray name="forces">
   <v>       -0.00192103      -0.00191124       0.09516061 </v>
   <v>       -0.00750140       0.00750140       0.09526328 </v>
   <v>        0.00747549      -0.00747549       0.09503626 </v>
   <v>        0.00191124       0.00192103       0.09516061 </v>
   <v>       -0.00001092       0.00001092       0.04421939 </v>
   <v>       -0.00001130       0.00000842       0.02390543 </v>
   <v>       -0.00000842       0.00001130       0.02390543 </v>
   <v>       -0.00004649       0.00004649       0.08711211 </v>
   <v>        0.03976881       0.03961764      -0.01965758 </v>
   <v>       -0.02210465       0.02210465      -0.01833439 </v>
   <v>        0.02226504      -0.02226504      -0.01859706 </v>
   <v>       -0.03961764      -0.03976881      -0.01965758 </v>
   <v>       -0.00566759       0.00566759      -0.10645703 </v>
   <v>       -0.00004761      -0.00005414      -0.06967039 </v>
   <v>        0.00005414       0.00004761      -0.06967039 </v>
   <v>       -0.00005685       0.00005685      -0.13115057 </v>
   <v>        0.00551920      -0.00551920      -0.10656814 </v>
  </varray>
  <varray name="stress">
   <v>      -32.93664981      12.23750981      -0.00081259 </v>
   <v>       12.23750981     -32.93664981       0.00081259 </v>
   <v>       -0.00081259       0.00081259      -9.34033477 </v>
  </varray>
  <energy>
   <i name="e_fr_energy">          -93.81981533 </i>
   <i name="e_wo_entrp">          -93.81981533 </i>
   <i name="e_0_energy">          -93.81981533 </i>
  </energy>
 </calculation>
 <calculation>
  <scstep>
   <energy>
    <i name="e_fr_energy">          -93.82718835 </i>
    <i name="e_wo_entrp">          -93.82718835 </i>
    <i name="e_0_energy">          -93.82718835 </i>
   </energy>
  </scstep>
  <structure>
   <crystal>
    <varray name="basis">
     <v>        5.62024000       0.00000000       0.00000000 </v>
     <v>        0.00000000       5.62024000       0.00000000 </v>
     <v>        0.00000000       0.00000000      16.86072000 </v>
    </varray>
    <i name="volume">      532.58120922 </i>
    <varray name="rec_basis">
     <v>        0.17792834       0.00000000       0.00000000 </v>
     <v>        0.00000000       0.17792834       0.00000000 </v>
     <v>        0.00000000       0.00000000       0.05930945 </v>
    </varray>
   </crystal>
   <varray name="positions">
    <v>        0.00144790       0.00144799      -0.00265491 </v>
    <v>        0.00089749       0.49910251      -0.00280880 </v>
    <v>        0.49910312       0.00089688      -0.00281787 </v>
    <v>        0.49855201       0.49855210      -0.00265491 </v>
    <v>        0.25000573       0.24999427       0.11397960 </v>
    <v>        0.74998460       0.24998604       0.11460256 </v>
    <v>        0.25001396       0.75001540       0.11460256 </v>
    <v>        0.74999391       0.75000609       0.11121687 </v>
    <v>       -0.00246653      -0.00245880       0.23315040 </v>
    <v>        0.00434141       0.49565859       0.23226796 </v>
    <v>        0.49564148       0.00435852       0.23230292 </v>
    <v>        0.50245880       0.50246653       0.23315040 </v>
    <v>        0.40826174       0.09173826       0.42480148 </v>
    <v>        0.75006967       0.25005473       0.34461948 </v>
    <v>        0.24994527       0.74993033       0.34461948 </v>
    <v>        0.74998906       0.75001094       0.35535489 </v>
    <v>        0.09180959       0.40819041       0.42486614 </v>
   </varray>
  </structure>
  <varray name="forces">
   <v>       -0.00241112      -0.00240006       0.07334081 </v>
   <v>       -0.00655019       0.00655019       0.07376438 </v>
   <v>        0.00652387      -0.00652387       0.07360561 </v>
   <v>        0.00240006       0.00241112       0.07334081 </v>
   <v>        0.00000083      -0.00000083       0.03186116 </v>
   <v>        0.00000350       0.00001001       0.02064409 </v>
   <v>       -0.00001001      -0.00000350       0.02064409 </v>
   <v>       -0.00004210       0.00004210       0.07563158 </v>
   <v>        0.03904043       0.03890867      -0.01168078 </v>
   <v>       -0.01980984       0.01980984      -0.01143540 </v>
   <v>        0.01994220      -0.01994220      -0.01162039 </v>
   <v>       -0.03890867      -0.03904043      -0.01168078 </v>
   <v>       -0.00451153       0.00451153      -0.08906565 </v>
   <v>       -0.00004001      -0.00006250      -0.05677911 </v>
   <v>        0.00006250       0.00004001      -0.05677911 </v>
   <v>       -0.00002763       0.00002763      -0.10465679 </v>
   <v>        0.00433772      -0.00433772      -0.08913452 </v>
  </varray>
  <varray name="stress">
   <v>      -31.13102396      12.28858313      -0.00095121 </v>
   <v>       12.28858313     -31.13102396       0.00095121 </v>
   <v>       -0.00095121       0.00095121      -7.44919205 </v>
  </varray>
  <energy>
   <i name="e_fr_energy">          -93.82718835 </i>
   <i name="e_wo_entrp">          -93.82718835 </i>
   <i name="e_0_energy">          -93.82718835 </i>
  </energy>
 </calculation>
 <calculation>
  <scstep>
   <energy>
    <i name="e_fr_energy">          -93.83319567 </i>
    <i name="e_wo_entrp">          -93.83319567 </i>
    <i name="e_0_energy">          -93.83319567 </i>
   </energy>
  </scstep>
  <structure>
   <crystal>
    <varray name="basis">
     <v>        5.62024000       0.00000000       0.00000000 </v>
     <v>        0.00000000       5.62024000       0.00000000 </v>
     <v>        0.00000000       0.00000000      16.86072000 </v>
    </varray>
    <i name="volume">      532.58120922 </i>
    <varray name="rec_basis">
     <v>        0.17792834       0.00000000       0.00000000 </v>
     <v>        0.00000000       0.17792834       0.00000000 </v>
     <v>        0.00000000       0.00000000       0.05930945 </v>
    </varray>
   </crystal>
   <varray name="positions">
    <v>        0.00140698       0.00140712      -0.00223929 </v>
    <v>        0.00078619       0.49921381      -0.00239077 </v>
    <v>        0.49921409       0.00078591      -0.00240076 </v>
    <v>        0.49859288       0.49859302      -0.00223929 </v>
    <v>        0.25000588       0.24999412       0.11416015 </v>
    <v>        0.74998478       0.24998606       0.11471955 </v>
    <v>        0.25001394       0.75001522       0.11471955 </v>
    <v>        0.74999328       0.75000672       0.11164547 </v>
    <v>       -0.00180252      -0.00179761       0.23308421 </v>
    <v>        0.00400485       0.49599515       0.23220312 </v>
    <v>        0.49598073       0.00401927       0.23223710 </v>
    <v>        0.50179761       0.50180252       0.23308421 </v>
    <v>        0.40818328       0.09181672       0.42429597 </v>
    <v>        0.75006978       0.25005308       0.34429772 </v>
    <v>        0.24994692       0.74993022       0.34429772 </v>
    <v>        0.74998878       0.75001122       0.35476180 </v>
    <v>        0.09188158       0.40811842       0.42436180 </v>
   </varray>
  </structure>
  <varray name="forces">
   <v>       -0.00334403      -0.00333290       0.05331403 </v>
   <v>       -0.00591519       0.00591519       0.05392197 </v>
   <v>        0.00588974      -0.00588974       0.05382311 </v>
   <v>        0.00333290       0.00334403       0.05331403 </v>
   <v>        0.00001020      -0.00001020       0.01907444 </v>
   <v>        0.00001514       0.00001035       0.01659044 </v>
   <v>       -0.00001035      -0.00001514       0.01659044 </v>
   <v>       -0.00003537       0.00003537       0.06194936 </v>
   <v>        0.03595581       0.03584783      -0.00579006 </v>
   <v>       -0.01806246       0.01806246      -0.00723606 </v>
   <v>        0.01816865      -0.01816865      -0.00735967 </v>
   <v>       -0.03584783      -0.03595581      -0.00579006 </v>
   <v>       -0.00380066       0.00380066      -0.06965464 </v>
   <v>       -0.00003091      -0.00007127      -0.04260953 </v>
   <v>        0.00007127       0.00003091      -0.04260953 </v>
   <v>        0.00000101      -0.00000101      -0.07785478 </v>
   <v>        0.00360209      -0.00360209      -0.06967351 </v>
  </varray>
  <varray name="stress">
   <v>      -29.31051265      12.34694382      -0.00109187 </v>
   <v>       12.34694382     -29.31051265       0.00109187 </v>
   <v>       -0.00109187       0.00109187      -5.56763914 </v>
  </varray>
  <energy>
   <i name="e_fr_energy">          -93.83319567 </i>
   <i name="e_wo_entrp">          -93.83319567 </i>
   <i name="e_0_energy">          -93.83319567 </i>
  </energy>
 </calculation>
 <calculation>
  <scstep>
   <energy>
    <i name="e_fr_energy">          -93.83784036 </i>
    <i name="e_wo_entrp">          -93.83784036 </i>
    <i name="e_0_energy">          -93.83784036 </i>
   </energy>
  </scstep>
  <structure>
   <crystal>
    <varray name="basis">
     <v>        5.62024000       0.00000000       0.00000000 </v>
     <v>        0.00000000       5.62024000       0.00000000 </v>
     <v>        0.00000000       0.00000000      16.86072000 </v>
    </varray>
    <i name="volume">      532.58120922 </i>
    <varray name="rec_basis">
     <v>        0.17792834       0.00000000       0.00000000 </v>
     <v>        0.00000000       0.17792834       0.00000000 </v>
     <v>        0.00000000       0.00000000       0.05930945 </v>
    </varray>
   </crystal>
   <varray name="positions">
    <v>        0.00133060       0.00133091      -0.00183315 </v>
    <v>        0.00065104       0.49934896      -0.00197999 </v>
    <v>        0.49934873       0.00065127      -0.00199075 </v>
    <v>        0.49866909       0.49866940      -0.00183315 </v>
    <v>        0.25000619       0.24999381       0.11430546 </v>
    <v>        0.74998520       0.24998621       0.11484593 </v>
    <v>        0.25001379       0.75001480       0.11484593 </v>
    <v>        0.74999252       0.75000748       0.11211739 </v>
    <v>       -0.00098062      -0.00097853       0.23304010 </v>
    <v>        0.00359219       0.49640781       0.23214797 </v>
    <v>        0.49639609       0.00360391       0.23218105 </v>
    <v>        0.50097853       0.50098062       0.23304010 </v>
    <v>        0.40809534       0.09190466       0.42376487 </v>
    <v>        0.75006955       0.25005108       0.34397312 </v>
    <v>        0.24994892       0.74993045       0.34397312 </v>
    <v>        0.74998892       0.75001108       0.35416872 </v>
    <v>        0.09196282       0.40803718       0.42383151 </v>
   </varray>
  </structure>
  <varray name="forces">
   <v>       -0.00419148      -0.00418164       0.03449212 </v>
   <v>       -0.00504519       0.00504519       0.03510410 </v>
   <v>        0.00502313      -0.00502313       0.03505502 </v>
   <v>        0.00418164       0.00419148       0.03449212 </v>
   <v>        0.00001520      -0.00001520       0.00716334 </v>
   <v>        0.00002283       0.00001026       0.01184664 </v>
   <v>       -0.00001026      -0.00002283       0.01184664 </v>
   <v>       -0.00002609       0.00002609       0.04605521 </v>
   <v>        0.03067225       0.03058896      -0.00154201 </v>
   <v>       -0.01600191       0.01600191      -0.00485107 </v>
   <v>        0.01608410      -0.01608410      -0.00493248 </v>
   <v>       -0.03058896      -0.03067225      -0.00154201 </v>
   <v>       -0.00281912       0.00281912      -0.04783926 </v>
   <v>       -0.00001901      -0.00008020      -0.02826967 </v>
   <v>        0.00008020       0.00001901      -0.02826967 </v>
   <v>        0.00002581      -0.00002581      -0.05100876 </v>
   <v>        0.00259687      -0.00259687      -0.04780024 </v>
  </varray>
  <varray name="stress">
   <v>      -27.45687735      12.40520588      -0.00124452 </v>
   <v>       12.40520588     -27.45687735       0.00124452 </v>
   <v>       -0.00124452       0.00124452      -3.68234902 </v>
  </varray>
  <energy>
   <i name="e_fr_energy">          -93.83784036 </i>
   <i name="e_wo_entrp">          -93.83784036 </i>
   <i name="e_0_energy">          -93.83784036 </i>
  </energy>
 </calculation>
 <calculation>
  <scstep>
   <energy>
    <i name="e_fr_energy">          -93.84106841 </i>
    <i name="e_wo_entrp">          -93.84106841 </i>
    <i name="e_0_energy">          -93.84106841 </i>
   </energy>
  </scstep>
  <structure>
   <crystal>
    <varray name="basis">
     <v>        5.62024000       0.00000000       0.00000000 </v>
     <v>        0.00000000       5.62024000       0.00000000 </v>
     <v>        0.00000000       0.00000000      16.86072000 </v>
    </varray>
    <i name="volume">      532.58120922 </i>
    <varray name="rec_basis">
     <v>        0.17792834       0.00000000       0.00000000 </v>
     <v>        0.00000000       0.17792834       0.00000000 </v>
     <v>        0.00000000       0.00000000       0.05930945 </v>
    </varray>
   </crystal>
   <varray name="positions">
    <v>        0.00118438       0.00118506      -0.00143210 </v>
    <v>        0.00047505       0.49952495      -0.00157183 </v>
    <v>        0.49952393       0.00047607      -0.00158316 </v>
    <v>        0.49881494       0.49881562      -0.00143210 </v>
    <v>        0.25000670       0.24999330       0.11438875 </v>
    <v>        0.74998598       0.24998659       0.11498367 </v>
    <v>        0.25001341       0.75001402       0.11498367 </v>
    <v>        0.74999160       0.75000840       0.11265288 </v>
    <v>        0.00008923       0.00008850       0.23302217 </v>
    <v>        0.00303399       0.49696601       0.23209157 </v>
    <v>        0.49695709       0.00304291       0.23212370 </v>
    <v>        0.49991150       0.49991077       0.23302217 </v>
    <v>        0.40799727       0.09200273       0.42320876 </v>
    <v>        0.75006877       0.25004838       0.34364443 </v>
    <v>        0.24995162       0.74993123       0.34364443 </v>
    <v>        0.74998979       0.75001021       0.35357563 </v>
    <v>        0.09205367       0.40794633       0.42327562 </v>
   </varray>
  </structure>
  <varray name="forces">
   <v>       -0.00438480      -0.00437824       0.01641548 </v>
   <v>       -0.00334864       0.00334864       0.01679111 </v>
   <v>        0.00333389      -0.00333389       0.01678120 </v>
   <v>        0.00437824       0.00438480       0.01641548 </v>
   <v>        0.00001372      -0.00001372      -0.00221150 </v>
   <v>        0.00002490       0.00000975       0.00631811 </v>
   <v>       -0.00000975      -0.00002490       0.00631811 </v>
   <v>       -0.00001398       0.00001398       0.02735663 </v>
   <v>        0.02254636       0.02248372       0.00121691 </v>
   <v>       -0.01279457       0.01279457      -0.00334300 </v>
   <v>        0.01285605      -0.01285605      -0.00340305 </v>
   <v>       -0.02248372      -0.02254636       0.00121691 </v>
   <v>       -0.00146526       0.00146526      -0.02379752 </v>
   <v>       -0.00000358      -0.00008889      -0.01385988 </v>
   <v>        0.00008889       0.00000358      -0.01385988 </v>
   <v>        0.00004113      -0.00004113      -0.02465984 </v>
   <v>        0.00122114      -0.00122114      -0.02369527 </v>
  </varray>
  <varray name="stress">
   <v>      -25.56078737      12.45257149      -0.00143880 </v>
   <v>       12.45257149     -25.56078737       0.00143880 </v>
   <v>       -0.00143880       0.00143880      -1.78353870 </v>
  </varray>
  <energy>
   <i name="e_fr_energy">          -93.84106841 </i>
   <i name="e_wo_entrp">          -93.84106841 </i>
   <i name="e_0_energy">          -93.84106841 </i>
  </energy>
 </calculation>
 <calculation>
  <scstep>
   <energy>
    <i name="e_fr_energy">          -93.84253725 </i>
    <i name="e_wo_entrp">          -93.84253725 </i>
    <i name="e_0_energy">          -93.84253725 </i>
   </energy>
  </scstep>
  <structure>
   <crystal>
    <varray name="basis">
     <v>        5.62024000       0.00000000       0.00000000 </v>
     <v>        0.00000000       5.62024000       0.00000000 </v>
     <v>        0.00000000       0.00000000      16.86072000 </v>
    </varray>
    <i name="volume">      532.58120922 </i>
    <varray name="rec_basis">
     <v>        0.17792834       0.00000000       0.00000000 </v>
     <v>        0.00000000       0.17792834       0.00000000 </v>
     <v>        0.00000000       0.00000000       0.05930945 </v>
    </varray>
   </crystal>
   <varray name="positions">
    <v>        0.00093938       0.00094075      -0.00112656 </v>
    <v>        0.00028792       0.49971208      -0.00125932 </v>
    <v>        0.49970995       0.00029005      -0.00127080 </v>
    <v>        0.49905925       0.49906062      -0.00112656 </v>
    <v>        0.25000720       0.24999280       0.11434759 </v>
    <v>        0.74998709       0.24998744       0.11510127 </v>
    <v>        0.25001256       0.75001291       0.11510127 </v>
    <v>        0.74999063       0.75000937       0.11316207 </v>
    <v>        0.00134761       0.00134453       0.23304482 </v>
    <v>        0.00231912       0.49768088       0.23202940 </v>
    <v>        0.49767452       0.00232548       0.23206031 </v>
    <v>        0.49865547       0.49865239       0.23304482 </v>
    <v>        0.40791895       0.09208105       0.42276733 </v>
    <v>        0.75006709       0.25004461       0.34338645 </v>
    <v>        0.24995539       0.74993291       0.34338645 </v>
    <v>        0.74999171       0.75000829       0.35311664 </v>
    <v>        0.09212535       0.40787465       0.42283306 </v>
   </varray>
  </structure>
  <varray name="forces">
   <v>       -0.00319446      -0.00319327       0.00291438 </v>
   <v>       -0.00061642       0.00061642       0.00287737 </v>
   <v>        0.00061188      -0.00061188       0.00288979 </v>
   <v>        0.00319327       0.00319446       0.00291438 </v>
   <v>        0.00000471      -0.00000471      -0.00427037 </v>
   <v>        0.00002049       0.00000699       0.00123902 </v>
   <v>       -0.00000699      -0.00002049       0.00123902 </v>
   <v>       -0.00000067       0.00000067       0.00896992 </v>
   <v>        0.01188168       0.01182579       0.00175797 </v>
   <v>       -0.00813780       0.00813780      -0.00161670 </v>
   <v>        0.00818835      -0.00818835      -0.00167812 </v>
   <v>       -0.01182579      -0.01188168       0.00175797 </v>
   <v>       -0.00043107       0.00043107      -0.00427235 </v>
   <v>        0.00000912      -0.00009223      -0.00233342 </v>
   <v>        0.00009223      -0.00000912      -0.00233342 </v>
   <v>        0.00003693      -0.00003693      -0.00593452 </v>
   <v>        0.00017455      -0.00017455      -0.00412091 </v>
  </varray>
  <varray name="stress">
   <v>      -24.08041431      12.45826991      -0.00170298 </v>
   <v>       12.45826991     -24.08041431       0.00170298 </v>
   <v>       -0.00170298       0.00170298      -0.32431155 </v>
  </varray>
  <energy>
   <i name="e_fr_energy">          -93.84253725 </i>
   <i name="e_wo_entrp">          -93.84253725 </i>
   <i name="e_0_energy">          -93.84253725 </i>
  </energy>
 </calculation>
 <calculation>
  <scstep>
   <energy>
    <i name="e_fr_energy">          -93.84287273 </i>
    <i name="e_wo_entrp">          -93.84287273 </i>
    <i name="e_0_energy">          -93.84287273 </i>
   </energy>
  </scstep>
  <structure>
   <crystal>
    <varray name="basis">
     <v>        5.62024000       0.00000000       0.00000000 </v>
     <v>        0.00000000       5.62024000       0.00000000 </v>
     <v>        0.00000000       0.00000000      16.86072000 </v>
    </varray>
    <i name="volume">      532.58120922 </i>
    <varray name="rec_basis">
     <v>        0.17792834       0.00000000       0.00000000 </v>
     <v>        0.00000000       0.17792834       0.00000000 </v>
     <v>        0.00000000       0.00000000       0.05930945 </v>
    </varray>
   </crystal>
   <varray name="positions">
    <v>        0.00060163       0.00060421      -0.00102402 </v>
    <v>        0.00022238       0.49977762      -0.00115811 </v>
    <v>        0.49977406       0.00022594      -0.00116907 </v>
    <v>        0.49939579       0.49939837      -0.00102402 </v>
    <v>        0.25000687       0.24999313       0.11419733 </v>
    <v>        0.74998837       0.24998914       0.11514487 </v>
    <v>        0.25001086       0.75001163       0.11514487 </v>
    <v>        0.74998992       0.75001008       0.11347769 </v>
    <v>        0.00260004       0.00259464       0.23310668 </v>
    <v>        0.00145874       0.49854126       0.23197264 </v>
    <v>        0.49853750       0.00146250       0.23200113 </v>
    <v>        0.49740536       0.49739996       0.23310668 </v>
    <v>        0.40788426       0.09211574       0.42262165 </v>
    <v>        0.75006356       0.25003860       0.34330435 </v>
    <v>        0.24996140       0.74993644       0.34330435 </v>
    <v>        0.74999446       0.75000554       0.35290782 </v>
    <v>        0.09215458       0.40784542       0.42268342 </v>
   </varray>
  </structure>
  <varray name="forces">
   <v>       -0.00047529      -0.00048184      -0.00136365 </v>
   <v>        0.00205958      -0.00205958      -0.00138281 </v>
   <v>       -0.00205888       0.00205888      -0.00135678 </v>
   <v>        0.00048184       0.00047529      -0.00136365 </v>
   <v>        0.00000124      -0.00000124       0.00171849 </v>
   <v>        0.00001869      -0.00000242      -0.00052088 </v>
   <v>        0.00000242      -0.00001869      -0.00052088 </v>
   <v>        0.00001705      -0.00001705      -0.00365505 </v>
   <v>        0.00132556       0.00127724       0.00013566 </v>
   <v>       -0.00154575       0.00154575       0.00017009 </v>
   <v>        0.00158978      -0.00158978       0.00010151 </v>
   <v>       -0.00127724      -0.00132556       0.00013566 </v>
   <v>        0.00015955      -0.00015955       0.00201211 </v>
   <v>        0.00001451      -0.00007397       0.00140437 </v>
   <v>        0.00007397      -0.00001451       0.00140437 </v>
   <v>        0.00002690      -0.00002690       0.00091065 </v>
   <v>       -0.00041392       0.00041392       0.00217080 </v>
  </varray>
  <varray name="stress">
   <v>      -23.57517609      12.39253148      -0.00211085 </v>
   <v>       12.39253148     -23.57517609       0.00211085 </v>
   <v>       -0.00211085       0.00211085       0.14442260 </v>
  </varray>
  <energy>
   <i name="e_fr_energy">          -93.84287273 </i>
   <i name="e_wo_entrp">          -93.84287273 </i>
   <i name="e_0_energy">          -93.84287273 </i>
  </energy>
 </calculation>
 <calculation>
  <scstep>
   <energy>
    <i name="e_fr_energy">          -93.84287415 </i>
    <i name="e_wo_entrp">          -93.84287415 </i>
    <i name="e_0_energy">          -93.84287415 </i>
   </energy>
  </scstep>
  <structure>
   <crystal>
    <varray name="basis">
     <v>        5.62024000       0.00000000       0.00000000 </v>
     <v>        0.00000000       5.62024000       0.00000000 </v>
     <v>        0.00000000       0.00000000      16.86072000 </v>
    </varray>
    <i name="volume">      532.58120922 </i>
    <varray name="rec_basis">
     <v>        0.17792834       0.00000000       0.00000000 </v>
     <v>        0.00000000       0.17792834       0.00000000 </v>
     <v>        0.00000000       0.00000000       0.05930945 </v>
    </varray>
   </crystal>
   <varray name="positions">
    <v>        0.00059992       0.00060252      -0.00102564 </v>
    <v>        0.00022969       0.49977031      -0.00115976 </v>
    <v>        0.49976672       0.00023328      -0.00117068 </v>
    <v>        0.49939748       0.49940008      -0.00102564 </v>
    <v>        0.25000684       0.24999316       0.11419937 </v>
    <v>        0.74998840       0.24998917       0.11514425 </v>
    <v>        0.25001083       0.75001160       0.11514425 </v>
    <v>        0.74998995       0.75001005       0.11347335 </v>
    <v>        0.00260469       0.00259925       0.23310684 </v>
    <v>        0.00145319       0.49854681       0.23197285 </v>
    <v>        0.49854311       0.00145689       0.23200125 </v>
    <v>        0.49740075       0.49739531       0.23310684 </v>
    <v>        0.40788522       0.09211478       0.42262420 </v>
    <v>        0.75006345       0.25003847       0.34330602 </v>
    <v>        0.24996153       0.74993655       0.34330602 </v>
    <v>        0.74999452       0.75000548       0.35290890 </v>
    <v>        0.09215351       0.40784649       0.42268583 </v>
   </varray>
  </structure>
  <varray name="forces">
   <v>       -0.00048177      -0.00048815      -0.00128581 </v>
   <v>        0.00199126      -0.00199126      -0.00130797 </v>
   <v>       -0.00198969       0.00198969      -0.00128195 </v>
   <v>        0.00048815       0.00048177      -0.00128581 </v>
   <v>        0.00000121      -0.00000121       0.00156039 </v>
   <v>        0.00001892      -0.00000251      -0.00049659 </v>
   <v>        0.00000251      -0.00001892      -0.00049659 </v>
   <v>        0.00001692      -0.00001692      -0.00343150 </v>
   <v>        0.00119959       0.00115177       0.00017571 </v>
   <v>       -0.00160001       0.00160001       0.00014607 </v>
   <v>        0.00164396      -0.00164396       0.00008036 </v>
   <v>       -0.00115177      -0.00119959       0.00017571 </v>
   <v>        0.00008525      -0.00008525       0.00191850 </v>
   <v>        0.00001203      -0.00007573       0.00129624 </v>
   <v>        0.00007573      -0.00001203       0.00129624 </v>
   <v>        0.00002557      -0.00002557       0.00085704 </v>
   <v>       -0.00033784       0.00033784       0.00207995 </v>
  </varray>
  <varray name="stress">
   <v>      -23.58280587      12.39233676      -0.00211475 </v>
   <v>       12.39233676     -23.58280587       0.00211475 </v>
   <v>       -0.00211475       0.00211475       0.13679842 </v>
  </varray>
  <energy>
   <i name="e_fr_energy">          -93.84287415 </i>
   <i name="e_wo_entrp">          -93.84287415 </i>
   <i name="e_0_energy">          -93.84287415 </i>
  </energy>
 </calculation>
 <calculation>
  <scstep>
   <energy>
    <i name="e_fr_energy">          -93.84287946 </i>
    <i name="e_wo_entrp">          -93.84287946 </i>
    <i name="e_0_energy">          -93.84287946 </i>
   </energy>
  </scstep>
  <structure>
   <crystal>
    <varray name="basis">
     <v>        5.62024000       0.00000000       0.00000000 </v>
     <v>        0.00000000       5.62024000       0.00000000 </v>
     <v>        0.00000000       0.00000000      16.86072000 </v>
    </varray>
    <i name="volume">      532.58120922 </i>
    <varray name="rec_basis">
     <v>        0.17792834       0.00000000       0.00000000 </v>
     <v>        0.00000000       0.17792834       0.00000000 </v>
     <v>        0.00000000       0.00000000       0.05930945 </v>
    </varray>
   </crystal>
   <varray name="positions">
    <v>        0.00059232       0.00059501      -0.00103231 </v>
    <v>        0.00026063       0.49973937      -0.00116655 </v>
    <v>        0.49973563       0.00026437      -0.00117734 </v>
    <v>        0.49940499       0.49940768      -0.00103231 </v>
    <v>        0.25000672       0.24999328       0.11420747 </v>
    <v>        0.74998855       0.24998928       0.11514167 </v>
    <v>        0.25001072       0.75001145       0.11514167 </v>
    <v>        0.74999010       0.75000990       0.11345553 </v>
    <v>        0.00262310       0.00261748       0.23310775 </v>
    <v>        0.00142803       0.49857197       0.23197362 </v>
    <v>        0.49856851       0.00143149       0.23200165 </v>
    <v>        0.49738252       0.49737690       0.23310775 </v>
    <v>        0.40788827       0.09211173       0.42263490 </v>
    <v>        0.75006294       0.25003788       0.34331275 </v>
    <v>        0.24996212       0.74993706       0.34331275 </v>
    <v>        0.74999474       0.75000526       0.35291336 </v>
    <v>        0.09214996       0.40785004       0.42269590 </v>
   </varray>
  </structure>
  <varray name="forces">
   <v>       -0.00051948      -0.00052563      -0.00097050 </v>
   <v>        0.00168925      -0.00168925      -0.00100451 </v>
   <v>       -0.00168446       0.00168446      -0.00097853 </v>
   <v>        0.00052563       0.00051948      -0.00097050 </v>
   <v>        0.00000160      -0.00000160       0.00104490 </v>
   <v>        0.00001934      -0.00000294      -0.00037769 </v>
   <v>        0.00000294      -0.00001934      -0.00037769 </v>
   <v>        0.00001629      -0.00001629      -0.00258306 </v>
   <v>        0.00079064       0.00074443       0.00027638 </v>
   <v>       -0.00170433       0.00170433       0.00001584 </v>
   <v>        0.00174727      -0.00174727      -0.00004184 </v>
   <v>       -0.00074443      -0.00079064       0.00027638 </v>
   <v>       -0.00013162       0.00013162       0.00149085 </v>
   <v>        0.00000618      -0.00007928       0.00091875 </v>
   <v>        0.00007928      -0.00000618       0.00091875 </v>
   <v>        0.00002207      -0.00002207       0.00070486 </v>
   <v>       -0.00011615       0.00011615       0.00165762 </v>
  </varray>
  <varray name="stress">
   <v>      -23.61419381      12.39064420      -0.00214130 </v>
   <v>       12.39064420     -23.61419381       0.00214130 </v>
   <v>       -0.00214130       0.00214130       0.10533990 </v>
  </varray>
  <energy>
   <i name="e_fr_energy">          -93.84287946 </i>
   <i name="e_wo_entrp">          -93.84287946 </i>
   <i name="e_0_energy">          -93.84287946 </i>
  </energy>
 </calculation>
 <calculation>
  <scstep>
   <energy>
    <i name="e_fr_energy">          -93.84288036 </i>
    <i name="e_wo_entrp">          -93.84288036 </i>
    <i name="e_0_energy">          -93.84288036 </i>
   </energy>
  </scstep>
  <structure>
   <crystal>
    <varray name="basis">
     <v>        5.62024000       0.00000000       0.00000000 </v>
     <v>        0.00000000       5.62024000       0.00000000 </v>
     <v>        0.00000000       0.00000000      16.86072000 </v>
    </varray>
    <i name="volume">      532.58120922 </i>
    <varray name="rec_basis">
     <v>        0.17792834       0.00000000       0.00000000 </v>
     <v>        0.00000000       0.17792834       0.00000000 </v>
     <v>        0.00000000       0.00000000       0.05930945 </v>
    </varray>
   </crystal>
   <varray name="positions">
    <v>        0.00059045       0.00059316      -0.00103347 </v>
    <v>        0.00026663       0.49973337      -0.00116775 </v>
    <v>        0.49972961       0.00027039      -0.00117850 </v>
    <v>        0.49940684       0.49940955      -0.00103347 </v>
    <v>        0.25000670       0.24999330       0.11420871 </v>
    <v>        0.74998858       0.24998931       0.11514122 </v>
    <v>        0.25001069       0.75001142       0.11514122 </v>
    <v>        0.74999014       0.75000986       0.11345246 </v>
    <v>        0.00262585       0.00262020       0.23310808 </v>
    <v>        0.00142192       0.49857808       0.23197365 </v>
    <v>        0.49857468       0.00142532       0.23200160 </v>
    <v>        0.49737980       0.49737415       0.23310808 </v>
    <v>        0.40788819       0.09211181       0.42263683 </v>
    <v>        0.75006280       0.25003773       0.34331384 </v>
    <v>        0.24996227       0.74993720       0.34331384 </v>
    <v>        0.74999477       0.75000523       0.35291419 </v>
    <v>        0.09214993       0.40785007       0.42269770 </v>
   </varray>
  </structure>
  <varray name="forces">
   <v>       -0.00052839      -0.00053485      -0.00091896 </v>
   <v>        0.00162632      -0.00162632      -0.00095471 </v>
   <v>       -0.00162124       0.00162124      -0.00092882 </v>
   <v>        0.00053485       0.00052839      -0.00091896 </v>
   <v>        0.00000192      -0.00000192       0.00104021 </v>
   <v>        0.00001915      -0.00000302      -0.00035048 </v>
   <v>        0.00000302      -0.00001915      -0.00035048 </v>
   <v>        0.00001619      -0.00001619      -0.00248783 </v>
   <v>        0.00079574       0.00074960       0.00025527 </v>
   <v>       -0.00163821       0.00163821      -0.00001694 </v>
   <v>        0.00168064      -0.00168064      -0.00007534 </v>
   <v>       -0.00074960      -0.00079574       0.00025527 </v>
   <v>       -0.00011130       0.00011130       0.00139364 </v>
   <v>        0.00000755      -0.00007783       0.00088984 </v>
   <v>        0.00007783      -0.00000755       0.00088984 </v>
   <v>        0.00002255      -0.00002255       0.00072046 </v>
   <v>       -0.00013702       0.00013702       0.00155801 </v>
  </varray>
  <varray name="stress">
   <v>      -23.61953452      12.38976632      -0.00215206 </v>
   <v>       12.38976632     -23.61953452       0.00215206 </v>
   <v>       -0.00215206       0.00215206       0.09994216 </v>
  </varray>
  <energy>
   <i name="e_fr_energy">          -93.84288036 </i>
   <i name="e_wo_entrp">          -93.84288036 </i>
   <i name="e_0_energy">          -93.84288036 </i>
  </energy>
 </calculation>
 <calculation>
  <scstep>
   <energy>
    <i name="e_fr_energy">          -93.84288375 </i>
    <i name="e_wo_entrp">          -93.84288375 </i>
    <i name="e_0_energy">          -93.84288375 </i>
   </energy>
  </scstep>
  <structure>
   <crystal>
    <varray name="basis">
     <v>        5.62024000       0.00000000       0.00000000 </v>
     <v>        0.00000000       5.62024000       0.00000000 </v>
     <v>        0.00000000       0.00000000      16.86072000 </v>
    </varray>
    <i name="volume">      532.58120922 </i>
    <varray name="rec_basis">
     <v>        0.17792834       0.00000000       0.00000000 </v>
     <v>        0.00000000       0.17792834       0.00000000 </v>
     <v>        0.00000000       0.00000000       0.05930945 </v>
    </varray>
   </crystal>
   <varray name="positions">
    <v>        0.00058226       0.00058506      -0.00103816 </v>
    <v>        0.00029146       0.49970854      -0.00117263 </v>
    <v>        0.49970470       0.00029530      -0.00118323 </v>
    <v>        0.49941494       0.49941774      -0.00103816 </v>
    <v>        0.25000660       0.24999340       0.11421402 </v>
    <v>        0.74998873       0.24998941       0.11513943 </v>
    <v>        0.25001059       0.75001127       0.11513943 </v>
    <v>        0.74999027       0.75000973       0.11343976 </v>
    <v>        0.00263777       0.00263196       0.23310938 </v>
    <v>        0.00139661       0.49860339       0.23197358 </v>
    <v>        0.49860021       0.00139979       0.23200119 </v>
    <v>        0.49736804       0.49736223       0.23310938 </v>
    <v>        0.40788813       0.09211187       0.42264465 </v>
    <v>        0.75006225       0.25003711       0.34331838 </v>
    <v>        0.24996289       0.74993775       0.34331838 </v>
    <v>        0.74999495       0.75000505       0.35291787 </v>
    <v>        0.09214948       0.40785052       0.42270496 </v>
   </varray>
  </structure>
  <varray name="forces">
   <v>       -0.00054692      -0.00055460      -0.00070595 </v>
   <v>        0.00138109      -0.00138109      -0.00074781 </v>
   <v>       -0.00137469       0.00137469      -0.00072255 </v>
   <v>        0.00055460       0.00054692      -0.00070595 </v>
   <v>        0.00000293      -0.00000293       0.00096177 </v>
   <v>        0.00001867      -0.00000322      -0.00025741 </v>
   <v>        0.00000322      -0.00001867      -0.00025741 </v>
   <v>        0.00001588      -0.00001588      -0.00207716 </v>
   <v>        0.00078713       0.00074161       0.00019913 </v>
   <v>       -0.00139058       0.00139058      -0.00011406 </v>
   <v>        0.00143134      -0.00143134      -0.00017313 </v>
   <v>       -0.00074161      -0.00078713       0.00019913 </v>
   <v>       -0.00005985       0.00005985       0.00101819 </v>
   <v>        0.00001056      -0.00007392       0.00072842 </v>
   <v>        0.00007392      -0.00001056       0.00072842 </v>
   <v>        0.00002340      -0.00002340       0.00074992 </v>
   <v>       -0.00018910       0.00018910       0.00117645 </v>
  </varray>
  <varray name="stress">
   <v>      -23.64138343      12.38645125      -0.00219152 </v>
   <v>       12.38645125     -23.64138343       0.00219152 </v>
   <v>       -0.00219152       0.00219152       0.07794993 </v>
  </varray>
  <energy>
   <i name="e_fr_energy">          -93.84288375 </i>
   <i name="e_wo_entrp">          -93.84288375 </i>
   <i name="e_0_energy">          -93.84288375 </i>
  </energy>
 </calculation>
 <calculation>
  <scstep>
   <energy>
    <i name="e_fr_energy">          -93.84288436 </i>
    <i name="e_wo_entrp">          -93.84288436 </i>
    <i name="e_0_energy">          -93.84288436 </i>
   </energy>
  </scstep>
  <structure>
   <crystal>
    <varray name="basis">
     <v>        5.62024000       0.00000000       0.00000000 </v>
     <v>        0.00000000       5.62024000       0.00000000 </v>
     <v>        0.00000000       0.00000000      16.86072000 </v>
    </varray>
    <i name="volume">      532.58120922 </i>
    <varray name="rec_basis">
     <v>        0.17792834       0.00000000       0.00000000 </v>
     <v>        0.00000000       0.17792834       0.00000000 </v>
     <v>        0.00000000       0.00000000       0.05930945 </v>
    </varray>
   </crystal>
   <varray name="positions">
    <v>        0.00058029       0.00058310      -0.00103900 </v>
    <v>        0.00029635       0.49970365      -0.00117351 </v>
    <v>        0.49969978       0.00030022      -0.00118409 </v>
    <v>        0.49941690       0.49941971      -0.00103900 </v>
    <v>        0.25000658       0.24999342       0.11421516 </v>
    <v>        0.74998877       0.24998944       0.11513913 </v>
    <v>        0.25001056       0.75001123       0.11513913 </v>
    <v>        0.74999031       0.75000969       0.11343729 </v>
    <v>        0.00264051       0.00263466       0.23310962 </v>
    <v>        0.00139161       0.49860839       0.23197345 </v>
    <v>        0.49860526       0.00139474       0.23200098 </v>
    <v>        0.49736534       0.49735949       0.23310962 </v>
    <v>        0.40788830       0.09211170       0.42264602 </v>
    <v>        0.75006213       0.25003698       0.34331925 </v>
    <v>        0.24996302       0.74993787       0.34331925 </v>
    <v>        0.74999499       0.75000501       0.35291876 </v>
    <v>        0.09214919       0.40785081       0.42270619 </v>
   </varray>
  </structure>
  <varray name="forces">
   <v>       -0.00053760      -0.00054550      -0.00066697 </v>
   <v>        0.00134335      -0.00134335      -0.00070922 </v>
   <v>       -0.00133665       0.00133665      -0.00068423 </v>
   <v>        0.00054550       0.00053760      -0.00066697 </v>
   <v>        0.00000294      -0.00000294       0.00091105 </v>
   <v>        0.00001876      -0.00000320      -0.00025005 </v>
   <v>        0.00000320      -0.00001876      -0.00025005 </v>
   <v>        0.00001587      -0.00001587      -0.00198556 </v>
   <v>        0.00076591       0.00072072       0.00020558 </v>
   <v>       -0.00135859       0.00135859      -0.00010825 </v>
   <v>        0.00139930      -0.00139930      -0.00016622 </v>
   <v>       -0.00072072      -0.00076591       0.00020558 </v>
   <v>       -0.00006986       0.00006986       0.00096328 </v>
   <v>        0.00000965      -0.00007430       0.00067437 </v>
   <v>        0.00007430      -0.00000965       0.00067437 </v>
   <v>        0.00002293      -0.00002293       0.00073083 </v>
   <v>       -0.00017832       0.00017832       0.00112246 </v>
  </varray>
  <varray name="stress">
   <v>      -23.64536553      12.38599510      -0.00219656 </v>
   <v>       12.38599510     -23.64536553       0.00219656 </v>
   <v>       -0.00219656       0.00219656       0.07400439 </v>
  </varray>
  <energy>
   <i name="e_fr_energy">          -93.84288436 </i>
   <i name="e_wo_entrp">          -93.84288436 </i>
   <i name="e_0_energy">          -93.84288436 </i>
  </energy>
 </calculation>
 <structure name="finalpos">
  <crystal>
   <varray name="basis">
    <v>        5.62024000       0.00000000       0.00000000 </v>
    <v>        0.00000000       5.62024000       0.00000000 </v>
    <v>        0.00000000       0.00000000      16.86072000 </v>
   </varray>
   <i name="volume">      532.58120922 </i>
   <varray name="rec_basis">
    <v>        0.17792834       0.00000000       0.00000000 </v>
    <v>        0.00000000       0.17792834       0.00000000 </v>
    <v>        0.00000000       0.00000000       0.05930945 </v>
   </varray>
  </crystal>
  <varray name="positions">
   <v>        0.00058029       0.00058310      -0.00103900 </v>
   <v>        0.00029635       0.49970365      -0.00117351 </v>
   <v>        0.49969978       0.00030022      -0.00118409 </v>
   <v>        0.49941690       0.49941971      -0.00103900 </v>
   <v>        0.25000658       0.24999342       0.11421516 </v>
   <v>        0.74998877       0.24998944       0.11513913 </v>
   <v>        0.25001056       0.75001123       0.11513913 </v>
   <v>        0.74999031       0.75000969       0.11343729 </v>
   <v>        0.00264051       0.00263466       0.23310962 </v>
   <v>        0.00139161       0.49860839       0.23197345 </v>
   <v>        0.49860526       0.00139474       0.23200098 </v>
   <v>        0.49736534       0.49735949       0.23310962 </v>
   <v>        0.40788830       0.09211170       0.42264602 </v>
   <v>        0.75006213       0.25003698       0.34331925 </v>
   <v>        0.24996302       0.74993787       0.34331925 </v>
   <v>        0.74999499       0.75000501       0.35291876 </v>
   <v>        0.09214919       0.40785081       0.42270619 </v>
  </varray>
 </structure>
</modeling>