phonopy:
  version: "3.5.0"
  frequency_unit_conversion_factor: 15.633302
  symmetry_tolerance: 1.00000e-05

physical_unit:
  atomic_mass: "AMU"
  length: "angstrom"
  force: "eV/angstrom"
  force_constants: "eV/angstrom^2"

space_group:
  type: "Fm-3m"
  number: 225
  Hall_symbol: "-F 4 2 3"

supercell_matrix:
- [   1,   0,   0 ]
- [   0,   1,   0 ]
- [   0,   0,   1 ]

primitive_cell:
  lattice:
  - [     6.476187656960027,     0.000000000000000,     0.000000000000000 ] # a
  - [     0.000000000000000,     6.476187656960027,     0.000000000000000 ] # b
  - [     0.000000000000000,     0.000000000000000,     6.476187656960027 ] # c
  points:
  - symbol: Pb # 1
    coordinates: [  0.000000000000000,  0.000000000000000,  0.000000000000000 ]
    mass: 207.200000
  - symbol: Pb # 2
    coordinates: [  0.000000000000000,  0.499999999999999,  0.499999999999999 ]
    mass: 207.200000
  - symbol: Pb # 3
    coordinates: [  0.499999999999999,  0.000000000000000,  0.499999999999999 ]
    mass: 207.200000
  - symbol: Pb # 4
    coordinates: [  0.499999999999999,  0.499999999999999,  0.000000000000000 ]
    mass: 207.200000
  - symbol: Te # 5
    coordinates: [  0.499999999999999,  0.499999999999999,  0.499999999999999 ]
    mass: 127.600000
  - symbol: Te # 6
    coordinates: [  0.499999999999999,  0.000000000000000,  0.000000000000000 ]
    mass: 127.600000
  - symbol: Te # 7
    coordinates: [  0.000000000000000,  0.499999999999999,  0.000000000000000 ]
    mass: 127.600000
  - symbol: Te # 8
    coordinates: [  0.000000000000000,  0.000000000000000,  0.499999999999999 ]
    mass: 127.600000
  reciprocal_lattice: # without 2pi
  - [     0.154411831924804,     0.000000000000000,     0.000000000000000 ] # a*
  - [     0.000000000000000,     0.154411831924804,     0.000000000000000 ] # b*
  - [     0.000000000000000,     0.000000000000000,     0.154411831924804 ] # c*

unit_cell:
  lattice:
  - [     6.476187656960027,    -0.000000000000000,     0.000000000000000 ] # a
  - [    -0.000000000000000,     6.476187656960027,    -0.000000000000000 ] # b
  - [     0.000000000000000,    -0.000000000000000,     6.476187656960027 ] # c
  points:
  - symbol: Pb # 1
    coordinates: [  0.000000000000000,  0.000000000000000,  0.000000000000000 ]
    mass: 207.200000
    reduced_to: 1
  - symbol: Pb # 2
    coordinates: [  0.000000000000000,  0.499999999999999,  0.499999999999999 ]
    mass: 207.200000
    reduced_to: 2
  - symbol: Pb # 3
    coordinates: [  0.499999999999999,  0.000000000000000,  0.499999999999999 ]
    mass: 207.200000
    reduced_to: 3
  - symbol: Pb # 4
    coordinates: [  0.499999999999999,  0.499999999999999,  0.000000000000000 ]
    mass: 207.200000
    reduced_to: 4
  - symbol: Te # 5
    coordinates: [  0.499999999999999,  0.499999999999999,  0.499999999999999 ]
    mass: 127.600000
    reduced_to: 5
  - symbol: Te # 6
    coordinates: [  0.499999999999999,  0.000000000000000,  0.000000000000000 ]
    mass: 127.600000
    reduced_to: 6
  - symbol: Te # 7
    coordinates: [  0.000000000000000,  0.499999999999999,  0.000000000000000 ]
    mass: 127.600000
    reduced_to: 7
  - symbol: Te # 8
    coordinates: [  0.000000000000000,  0.000000000000000,  0.499999999999999 ]
    mass: 127.600000
    reduced_to: 8

supercell:
  lattice:
  - [     6.476187656960027,     0.000000000000000,     0.000000000000000 ] # a
  - [     0.000000000000000,     6.476187656960027,     0.000000000000000 ] # b
  - [     0.000000000000000,     0.000000000000000,     6.476187656960027 ] # c
  points:
  - symbol: Pb # 1
    coordinates: [  0.000000000000000,  0.000000000000000,  0.000000000000000 ]
    mass: 207.200000
    reduced_to: 1
  - symbol: Pb # 2
    coordinates: [  0.000000000000000,  0.499999999999999,  0.499999999999999 ]
    mass: 207.200000
    reduced_to: 2
  - symbol: Pb # 3
    coordinates: [  0.499999999999999,  0.000000000000000,  0.499999999999999 ]
    mass: 207.200000
    reduced_to: 3
  - symbol: Pb # 4
    coordinates: [  0.499999999999999,  0.499999999999999,  0.000000000000000 ]
    mass: 207.200000
    reduced_to: 4
  - symbol: Te # 5
    coordinates: [  0.499999999999999,  0.499999999999999,  0.499999999999999 ]
    mass: 127.600000
    reduced_to: 5
  - symbol: Te # 6
    coordinates: [  0.499999999999999,  0.000000000000000,  0.000000000000000 ]
    mass: 127.600000
    reduced_to: 6
  - symbol: Te # 7
    coordinates: [  0.000000000000000,  0.499999999999999,  0.000000000000000 ]
    mass: 127.600000
    reduced_to: 7
  - symbol: Te # 8
    coordinates: [  0.000000000000000,  0.000000000000000,  0.499999999999999 ]
    mass: 127.600000
    reduced_to: 8

displacements:
- atom:    1
  displacement:
    [   0.0200000000000000,  0.0000000000000000,  0.0000000000000000 ]
  forces:
  - [  -0.0279441865570803, -0.0000000000000096, -0.0000000000000093 ]
  - [   0.0000392519213232,  0.0000000000000093,  0.0000000000000098 ]
  - [   0.0010213878998119, -0.0000000000000095,  0.0000000000000099 ]
  - [   0.0010213878998119,  0.0000000000000099, -0.0000000000000102 ]
  - [   0.0003802774232625,  0.0000000000000138,  0.0000000000000134 ]
  - [   0.0216744519280424, -0.0000000000000130, -0.0000000000000137 ]
  - [   0.0019037147424140,  0.0000000000000131, -0.0000000000000135 ]
  - [   0.0019037147424143, -0.0000000000000139,  0.0000000000000136 ]
- atom:    1
  displacement:
    [  -0.0200000000000000,  0.0000000000000000,  0.0000000000000000 ]
  forces:
  - [   0.0279441865570605, -0.0000000000000093, -0.0000000000000093 ]
  - [  -0.0000392519213429,  0.0000000000000092,  0.0000000000000095 ]
  - [  -0.0010213878997921, -0.0000000000000103,  0.0000000000000099 ]
  - [  -0.0010213878997922,  0.0000000000000099, -0.0000000000000100 ]
  - [  -0.0003802774232354,  0.0000000000000130,  0.0000000000000130 ]
  - [  -0.0216744519280160, -0.0000000000000128, -0.0000000000000131 ]
  - [  -0.0019037147424411,  0.0000000000000138, -0.0000000000000137 ]
  - [  -0.0019037147424408, -0.0000000000000134,  0.0000000000000134 ]
- atom:    5
  displacement:
    [   0.0200000000000000,  0.0000000000000000,  0.0000000000000000 ]
  forces:
  - [   0.0003800219023683, -0.0000000000000097, -0.0000000000000100 ]
  - [   0.0216663230508881,  0.0000000000000098,  0.0000000000000100 ]
  - [   0.0019022876611111, -0.0000000000000097,  0.0000000000000102 ]
  - [   0.0019022876611116,  0.0000000000000094, -0.0000000000000095 ]
  - [  -0.0358941153685119,  0.0000000000000121,  0.0000000000000124 ]
  - [  -0.0003093509189284, -0.0000000000000125, -0.0000000000000128 ]
  - [   0.0051762730059806,  0.0000000000000134, -0.0000000000000134 ]
  - [   0.0051762730059807, -0.0000000000000129,  0.0000000000000132 ]
- atom:    5
  displacement:
    [  -0.0200000000000000,  0.0000000000000000,  0.0000000000000000 ]
  forces:
  - [  -0.0003800219023883, -0.0000000000000101, -0.0000000000000102 ]
  - [  -0.0216663230509076,  0.0000000000000103,  0.0000000000000101 ]
  - [  -0.0019022876610913, -0.0000000000000098,  0.0000000000000100 ]
  - [  -0.0019022876610907,  0.0000000000000101, -0.0000000000000099 ]
  - [   0.0358941153685374,  0.0000000000000129,  0.0000000000000128 ]
  - [   0.0003093509189562, -0.0000000000000133, -0.0000000000000130 ]
  - [  -0.0051762730060075,  0.0000000000000134, -0.0000000000000131 ]
  - [  -0.0051762730060082, -0.0000000000000134,  0.0000000000000132 ]
