MACE-ASE MD
   1.00000000000000
        4.2112000000     0.0000000000     0.0000000000
        0.0000000000     4.2112000000     0.0000000000
        0.0000000000     0.0000000000     4.2112000000
  Mg  O
  4  4
Direct configuration=     1
  0.9983014506 0.9994349859 0.9985994627
  0.0005060517 0.5030650286 0.5009480179
  0.4998877430 0.0003890094 0.4985958265
  0.4988597354 0.4986415267 0.9990708152
  0.4990079588 0.5008554744 0.5003879570
  0.5011497870 0.0027818809 0.9978203260
  0.9988851840 0.4986234976 0.0012477570
  0.0023393108 0.9974494823 0.5014648483
Direct configuration=     2
  0.9969183566 0.9985995926 0.9972541504
  0.0011027457 0.5057130517 0.5019557935
  0.4995125710 0.0008450462 0.4974030846
  0.4982117545 0.4976473491 0.9984476731
  0.4977812258 0.5017257984 0.5001219293
  0.5014777061 0.0055535255 0.9959670834
  0.9980139480 0.4972404596 0.0027422641
  0.0046750193 0.9953255796 0.5021399298
Direct configuration=     3
  0.9952007542 0.9979419976 0.9958950510
  0.0020020476 0.5077504908 0.5031680235
  0.4987980740 0.0010230415 0.4962038008
  0.4976595109 0.4968717402 0.9977374338
  0.4967208122 0.5024057228 0.4995462795
  0.5013944144 0.0087261331 0.9943777800
  0.9974057225 0.4956140477 0.0048120598
  0.0072831736 0.9939047448 0.5021816322
Direct configuration=     4
  0.9930950066 0.9973703673 0.9941683385
  0.0034111289 0.5097232924 0.5043943680
  0.4983705492 0.0005691929 0.4948493270
  0.4969488192 0.4960230182 0.9972390332
  0.4961088514 0.5029096711 0.4993351997
  0.5010899615 0.0121180042 0.9932477090
  0.9963754559 0.4942210460 0.0065655919
  0.0098479122 0.9930695162 0.5021663364
Direct configuration=     5
  0.9909912907 0.9966021195 0.9925301083
  0.0050718462 0.5115743233 0.5057958267
  0.4980087102 0.0001986554 0.4938350656
  0.4961515827 0.4953478076 0.9966394019
  0.4957530408 0.5035174402 0.4990108828
  0.5007510701 0.0151169733 0.9921692310
  0.9950365848 0.4930236970 0.0077131731
  0.0121061552 0.9924146257 0.5022990457
Direct configuration=     6
  0.9889073124 0.9957575759 0.9911240155
  0.0068055605 0.5135087711 0.5075453933
  0.4980742457 0.9997611411 0.4928861036
  0.4954875236 0.4945389649 0.9962401778
  0.4956514283 0.5041624911 0.4981315409
  0.5005957538 0.0174964033 0.9909466523
  0.9935186775 0.4923910754 0.0086073654
  0.0134525782 0.9919610822 0.5022264894
Direct configuration=     7
  0.9873273810 0.9949212057 0.9896290886
  0.0082680341 0.5153016034 0.5093537467
  0.4979119225 0.9994263191 0.4918807072
  0.4945635337 0.4939523681 0.9960113430
  0.4962728584 0.5046305884 0.4972190714
  0.5000893532 0.0195041412 0.9900366194
  0.9925073854 0.4922225835 0.0095145746
  0.0141265807 0.9912483810 0.5015078969
Direct configuration=     8
  0.9861027721 0.9942038973 0.9882419701
  0.0100653152 0.5166058668 0.5113306475
  0.4976006562 0.9994206134 0.4908069542
  0.4934690249 0.4936152783 0.9959288623
  0.4970394870 0.5049185245 0.4963216919
  0.4992978896 0.0213707531 0.9889458858
  0.9914995455 0.4924308131 0.0104354403
  0.0143796337 0.9902225177 0.5005199327
Direct configuration=     9
  0.9851562206 0.9937459087 0.9866790406
  0.0116834508 0.5172009550 0.5127656478
  0.4974771092 0.9989821805 0.4899253879
  0.4923953214 0.4931971721 0.9962659064
  0.4983983851 0.5050159895 0.4952620992
  0.4984148022 0.0233868113 0.9874730131
  0.9902601922 0.4929317966 0.0117606156
  0.0138765335 0.9903540792 0.4998497849
Direct configuration=    10
  0.9847238169 0.9933671587 0.9854745607
  0.0129899705 0.5172519859 0.5135920567
  0.4974534739 0.9979358218 0.4890956146
  0.4916570597 0.4929215800 0.9971006843
  0.4997711082 0.5051666736 0.4939137352
  0.4968909672 0.0250865217 0.9861999290
  0.9894669121 0.4939798699 0.0127437015
  0.0128290756 0.9915898353 0.4993145629
Direct configuration=    11
  0.9847740894 0.9929269391 0.9842062262
  0.0139867921 0.5164401452 0.5141739523
  0.4976393237 0.9971989989 0.4882092171
  0.4909357234 0.4927290836 0.9986969751
  0.5011939931 0.5055073463 0.4926584071
  0.4951769989 0.0259243345 0.9849162547
  0.9887956559 0.4954765229 0.0130568601
  0.0112745179 0.9938163984 0.4988806483
Direct configuration=    12
  0.9848270651 0.9924843087 0.9827924036
  0.0147460117 0.5150877150 0.5143995831
  0.4978025263 0.9967690305 0.4872308972
  0.4904840816 0.4927791241 0.0003579459
  0.5025460618 0.5060482158 0.4920075772
  0.4934522341 0.0256751781 0.9841164440
  0.9880885881 0.4968638199 0.0130655139
  0.0097734512 0.9969955438 0.4983806203
Direct configuration=    13
  0.9850938209 0.9922518686 0.9819638713
  0.0154377056 0.5138211320 0.5140720578
  0.4978147170 0.9967352299 0.4862636351
  0.4900983699 0.4929077703 0.0017586139
  0.5038241240 0.5066864430 0.4917441372
  0.4914941520 0.0244458566 0.9838319917
  0.9875106930 0.4976494501 0.0125506398
  0.0082911843 0.0006028937 0.4978439149
Direct configuration=    14
  0.9856817524 0.9917906491 0.9815961270
  0.0161716529 0.5123306405 0.5134527328
  0.4978533590 0.9968914516 0.4857997891
  0.4899829600 0.4931525932 0.0030063969
  0.5047153470 0.5078570584 0.4915752003
  0.4893950551 0.0223069145 0.9831371234
  0.9868273708 0.4983548888 0.0119771868
  0.0066390670 0.0047654309 0.4971284532
Direct configuration=    15
  0.9860245741 0.9913795686 0.9817176122
  0.0166652197 0.5106130148 0.5120096552
  0.4978728186 0.9970896665 0.4855481934
  0.4898381591 0.4936575797 0.0040181611
  0.5058488911 0.5087463738 0.4919154469
  0.4874442477 0.0192336817 0.9827045549
  0.9867635553 0.5000349680 0.0111248520
  0.0046037009 0.0089071955 0.4964977205
Direct configuration=    16
  0.9862629667 0.9915247360 0.9820177950
  0.0169937091 0.5087601512 0.5103526755
  0.4977881094 0.9973871431 0.4850599315
  0.4901099214 0.4944895299 0.0047345951
  0.5066479666 0.5097961410 0.4925864126
  0.4858967886 0.0151566447 0.9827004567
  0.9867487571 0.5021270490 0.0101012081
  0.0025501201 0.0122168337 0.4961825174
Direct configuration=    17
  0.9864976685 0.9919128288 0.9824769166
  0.0170519696 0.5069219210 0.5083549944
  0.4974854580 0.9977616386 0.4846106183
  0.4907223563 0.4954415304 0.0053466784
  0.5071103069 0.5113536839 0.4932789010
  0.4848463536 0.0107570562 0.9829111976
  0.9867459533 0.5041348918 0.0092016050
  0.0007022920 0.0146458648 0.4959968583
Direct configuration=    18
  0.9869654633 0.9927675233 0.9831199552
  0.0173503684 0.5052746991 0.5061074103
  0.4968505317 0.9981701093 0.4840551050
  0.4913596674 0.4965614279 0.0058618647
  0.5072775598 0.5123412587 0.4941272196
  0.4839488860 0.0060313489 0.9831259066
  0.9867833795 0.5060243684 0.0079160030
  0.9987775184 0.0168917009 0.4963191445
Direct configuration=    19
  0.9874737278 0.9939160455 0.9842629680
  0.0171678545 0.5035341715 0.5039271289
  0.4966687816 0.9988412659 0.4834086900
  0.4916710574 0.4979113633 0.0063708016
  0.5074668176 0.5129210033 0.4945226057
  0.4831997866 0.0012005211 0.9831079828
  0.9868457957 0.5075055901 0.0065350868
  0.9968896584 0.0189714822 0.4967642986
Direct configuration=    20
  0.9882410136 0.9952940607 0.9853853118
  0.0171750089 0.5018322556 0.5016818416
  0.4967632880 0.9994229543 0.4832004857
  0.4917938672 0.4993881994 0.0070240630
  0.5070445468 0.5132967553 0.4947718792
  0.4825109636 0.9967055264 0.9831310304
  0.9870253196 0.5085682759 0.0045957788
  0.9948687058 0.0208366587 0.4972053419
Direct configuration=    21
  0.9888226351 0.9969029776 0.9867504591
  0.0169388804 0.4998481503 0.4992346039
  0.4967960296 0.0002649716 0.4831276281
  0.4920469947 0.5006200218 0.0076676951
  0.5067913429 0.5138025240 0.4950025584
  0.4825545847 0.9923690487 0.9837853980
  0.9869883241 0.5095315863 0.0023964479
  0.9925681131 0.0224578105 0.4970842880
Direct configuration=    22
  0.9893481280 0.9985188783 0.9885143465
  0.0160922646 0.4975594933 0.4968447137
  0.4970854712 0.0013291552 0.4830249198
  0.4927055876 0.5020550134 0.0080144927
  0.5062767520 0.5140695891 0.4955063192
  0.4832739551 0.9882173899 0.9845028736
  0.9870223620 0.5104722869 0.0001267026
  0.9899843851 0.0240016073 0.4966680944
Direct configuration=    23
  0.9901587848 0.0000574778 0.9903301732
  0.0142626632 0.4954984176 0.4946154598
  0.4974654392 0.0020629387 0.4830342984
  0.4936305418 0.5033691952 0.0081499867
  0.5056850099 0.5141787607 0.4955060130
  0.4835009485 0.9845173366 0.9857558287
  0.9875507663 0.5112077955 0.9981283195
  0.9879326662 0.0257566013 0.4958250000
Direct configuration=    24
  0.9912172095 0.0016337375 0.9920553888
  0.0122966553 0.4935519323 0.4925465517
  0.4977202978 0.0026390302 0.4835317613
  0.4943717002 0.5047699236 0.0078566025
  0.5050273879 0.5140580047 0.4955803900
  0.4834516410 0.9813591347 0.9872731891
  0.9884488723 0.5115543445 0.9956707269
  0.9861761570 0.0274957805 0.4949057881
Direct configuration=    25
  0.9919753972 0.0029433181 0.9934445604
  0.0103004525 0.4917788119 0.4903116279
  0.4981000181 0.0032800331 0.4837933423
  0.4949109380 0.5062973114 0.0075823871
  0.5046110091 0.5134680461 0.4962398507
  0.4832776984 0.9789773664 0.9892426334
  0.9894363245 0.5118040309 0.9932362956
  0.9849380262 0.0289125083 0.4938637733
Direct configuration=    26
  0.9919463281 0.0040509395 0.9944134378
  0.0084715010 0.4902450907 0.4881477844
  0.4981472657 0.0042674431 0.4839061522
  0.4954172852 0.5075970388 0.0076541417
  0.5045159973 0.5121818783 0.4969305857
  0.4835144322 0.9778207352 0.9912890814
  0.9908733315 0.5113943075 0.9910494301
  0.9838551955 0.0302038125 0.4928443895
Direct configuration=    27
  0.9912924494 0.0052010863 0.9952375118
  0.0067103092 0.4893591939 0.4865094381
  0.4980259360 0.0055000268 0.4841502733
  0.4963308398 0.5083349512 0.0072360097
  0.5047383056 0.5100634344 0.4976310436
  0.4846449067 0.9774218205 0.9931121128
  0.9918351125 0.5109770148 0.9888419583
  0.9827391589 0.0309827653 0.4919618116
Direct configuration=    28
  0.9902052700 0.0062279659 0.9958399976
  0.0049532319 0.4888808199 0.4846573987
  0.4978655613 0.0070549196 0.4846151909
  0.4972579073 0.5087747460 0.0071324479
  0.5056495374 0.5075347273 0.4984831572
  0.4856152986 0.9773606219 0.9950413410
  0.9926824095 0.5111148009 0.9865918761
  0.9818542136 0.0307850304 0.4907800805
Direct configuration=    29
  0.9890599385 0.0071794278 0.9960523616
  0.0035940327 0.4884386461 0.4827369060
  0.4979123269 0.0086369826 0.4851663674
  0.4979434215 0.5091669751 0.0068093838
  0.5060744212 0.5054267878 0.4995421818
  0.4865669431 0.9783050732 0.9971900679
  0.9934671656 0.5109085079 0.9848214585
  0.9811051252 0.0294863674 0.4895443327
Direct configuration=    30
  0.9878398751 0.0083343604 0.9963360353
  0.0023976991 0.4882344350 0.4812847238
  0.4981636858 0.0097404050 0.4859979150
  0.4986051825 0.5094378237 0.0057347085
  0.5062531005 0.5033923740 0.5004936523
  0.4874874106 0.9799650940 0.9992299050
  0.9939596193 0.5107847949 0.9834441545
  0.9806630132 0.0275319739 0.4882246011
Direct configuration=    31
  0.9870974333 0.0097548700 0.9959279804
  0.0011776454 0.4880895797 0.4803061027
  0.4979013071 0.0106433552 0.4869871249
  0.4987043508 0.5096221713 0.0043633918
  0.5060532939 0.5017188645 0.5010975363
  0.4887344700 0.9820338290 0.0008747186
  0.9947266193 0.5104943654 0.9826464359
  0.9807857560 0.0250434192 0.4874571324
Direct configuration=    32
  0.9865698476 0.0111883047 0.9951280240
  0.9999912749 0.4883586265 0.4796521633
  0.4972846636 0.0113901421 0.4880944898
  0.4983871517 0.5094211732 0.0035495587
  0.5054852762 0.5005862543 0.5009910330
  0.4900020553 0.9844975760 0.0020097956
  0.9955809131 0.5100682142 0.9821867269
  0.9820228481 0.0218105909 0.4868658691
Direct configuration=    33
  0.9857444805 0.0127113878 0.9937988092
  0.9989242346 0.4885811758 0.4795536818
  0.4964300231 0.0121516649 0.4893851756
  0.4982296842 0.5091843368 0.0028488354
  0.5040073882 0.5000136009 0.5002267154
  0.4916654113 0.9873547343 0.0027882635
  0.9963900039 0.5093952135 0.9822309630
  0.9842423110 0.0178950781 0.4862633905
Direct configuration=    34
  0.9847345878 0.0142393408 0.9921714904
  0.9977204415 0.4892933844 0.4800845590
  0.4957068271 0.0123146587 0.4906853843
  0.4983014386 0.5085758437 0.0022997545
  0.5019354787 0.4998447620 0.4990925327
  0.4936438724 0.9903499170 0.0037857432
  0.9970840926 0.5087303178 0.9819020015
  0.9867953722 0.0140187980 0.4855861936
Direct configuration=    35
  0.9838110357 0.0157406920 0.9904229987
  0.9964571064 0.4901721792 0.4807790631
  0.4950975528 0.0122511097 0.4919154912
  0.4984009278 0.5078483557 0.0015263852
  0.4996569848 0.5000487034 0.4977910870
  0.4956659494 0.9941083652 0.0045142307
  0.9977723338 0.5078197925 0.9824173682
  0.9893238115 0.0095934119 0.4849081697
Direct configuration=    36
  0.9830663215 0.0166167984 0.9888604320
  0.9952854825 0.4918550849 0.4816136050
  0.4946613826 0.0118354885 0.4932785356
  0.4981617727 0.5070608836 0.0001365017
  0.4969895312 0.5001319754 0.4967184772
  0.4977412702 0.9984252493 0.0048085057
  0.9986275861 0.5072200097 0.9831062391
  0.9918252721 0.0048288050 0.4846001169
Direct configuration=    37
  0.9823272116 0.0167143767 0.9870431610
  0.9942588010 0.4939926362 0.4822658050
  0.4943893563 0.0112021011 0.4947647627
  0.4977290980 0.5064142511 0.9987057125
  0.4949158453 0.5002016047 0.4964063334
  0.4993920173 0.0029819752 0.0049740057
  0.9994606937 0.5067782650 0.9835280403
  0.9940173347 0.0001758441 0.4843472930
Direct configuration=    38
  0.9816334903 0.0163837645 0.9853884939
  0.9934018490 0.4965308891 0.4829890088
  0.4943424489 0.0107004153 0.4961092122
  0.4971642082 0.5058112322 0.9975515232
  0.4929653570 0.5004828814 0.4957974166
  0.5013536514 0.0074675451 0.0047363357
  0.0003785933 0.5060465850 0.9841439458
  0.9954036405 0.9954161704 0.4840618600
Direct configuration=    39
  0.9806879881 0.0157907420 0.9838276427
  0.9928058052 0.4994863130 0.4836885820
  0.4944005114 0.0103090121 0.4980204014
  0.4963233580 0.5052933107 0.9964738385
  0.4914561284 0.5008093544 0.4950584431
  0.5035407864 0.0117967876 0.0039702568
  0.0013753667 0.5049590122 0.9844411286
  0.9962254411 0.9905995825 0.4837236739
Direct configuration=    40
  0.9798653900 0.0147614092 0.9822381828
  0.9919027156 0.5022423500 0.4846511872
  0.4941790696 0.0098331019 0.5002702609
  0.4959089422 0.5049391920 0.9953684010
  0.4902978348 0.5004772347 0.4940424768
  0.5058897514 0.0163752870 0.0026432270
  0.0020431663 0.5041679293 0.9849526063
  0.9968786112 0.9866589187 0.4832840300
Direct configuration=    41
  0.9794891723 0.0133285189 0.9809402030
  0.9908832530 0.5051314493 0.4858581494
  0.4936192292 0.0092218067 0.5021415272
  0.4957532497 0.5048534866 0.9944219356
  0.4894606363 0.5000295605 0.4925108279
  0.5080082293 0.0202452625 0.0006385708
  0.0024121701 0.5038848363 0.9856033035
  0.9974315872 0.9832968210 0.4834441620
Direct configuration=    42
  0.9794006508 0.0122810605 0.9801149939
  0.9900052211 0.5078900819 0.4872649181
  0.4930950206 0.0083961856 0.5034742661
  0.4952464796 0.5050363551 0.9933430976
  0.4885481659 0.4997094633 0.4912021800
  0.5102180537 0.0233793102 0.9983374752
  0.0026553830 0.5036559276 0.9863350374
  0.9979392617 0.9800745023 0.4835625306
Direct configuration=    43
  0.9791571232 0.0111130699 0.9797581511
  0.9889080206 0.5103344046 0.4884050905
  0.4929656491 0.0073906456 0.5050323369
  0.4949118873 0.5055757648 0.9919665338
  0.4883568452 0.4994464400 0.4901890604
  0.5119966704 0.0259179180 0.9957001384
  0.0023463937 0.5036305560 0.9872718579
  0.9985412047 0.9774365946 0.4834353938
Direct configuration=    44
  0.9791573975 0.0099004769 0.9796700371
  0.9880469058 0.5127325926 0.4892019434
  0.4927828464 0.0063958889 0.5068181170
  0.4943874027 0.5064724822 0.9905917908
  0.4886102533 0.4990320801 0.4893547717
  0.5132270930 0.0277217812 0.9927671846
  0.0016701710 0.5033137882 0.9877503518
  0.9991832802 0.9755859909 0.4835527275
Direct configuration=    45
  0.9795378003 0.0085946412 0.9797440759
  0.9877733062 0.5149232342 0.4900802262
  0.4922766834 0.0054589767 0.5085725153
  0.4938454726 0.5075412656 0.9895505835
  0.4887475992 0.4989643207 0.4879075625
  0.5141897482 0.0288884893 0.9896308234
  0.0005289734 0.5024822248 0.9882560200
  0.9996299176 0.9746329391 0.4836596904
Direct configuration=    46
  0.9806243024 0.0070493411 0.9802237846
  0.9875976754 0.5171201906 0.4913779950
  0.4916656818 0.0041564295 0.5096070614
  0.4933969732 0.5088732452 0.9883683222
  0.4888440009 0.4991653528 0.4863421739
  0.5145288750 0.0295008804 0.9866061896
  0.9995104094 0.5020188833 0.9887841796
  0.9995120595 0.9740609938 0.4838871906
Direct configuration=    47
  0.9819634200 0.0060823506 0.9808880170
  0.9875183124 0.5190489153 0.4925500188
  0.4908350745 0.0029673621 0.5096132789
  0.4932771487 0.5101078488 0.9874500172
  0.4887750103 0.4992493943 0.4850923994
  0.5142172264 0.0290494352 0.9839487124
  0.9986871760 0.5016139246 0.9893750802
  0.9993027011 0.9741557781 0.4844752735
Direct configuration=    48
  0.9838007223 0.0055070346 0.9815774382
  0.9875780231 0.5203935083 0.4932139343
  0.4899812408 0.0020270352 0.5089396575
  0.4932156951 0.5111278285 0.9870460108
  0.4892667542 0.4993829117 0.4837280497
  0.5130942218 0.0274127602 0.9819845994
  0.9976866589 0.5012927864 0.9894796823
  0.9984853246 0.9753701382 0.4858586038
Direct configuration=    49
  0.9860678746 0.0056021624 0.9822174232
  0.9878582046 0.5210892420 0.4939523564
  0.4894356120 0.0012533634 0.5080675750
  0.4930392761 0.5123110401 0.9867200483
  0.4894347870 0.4995121687 0.4821132459
  0.5117432573 0.0248460966 0.9807058233
  0.9969895044 0.5008636167 0.9889814363
  0.9967586282 0.9773156349 0.4875559766
Direct configuration=    50
  0.9884752610 0.0061602486 0.9828506999
  0.9879758224 0.5210597093 0.4942985644
  0.4890574977 0.0007049137 0.5072174876
  0.4928402501 0.5134739059 0.9866198897
  0.4896287145 0.4996323254 0.4807105777
  0.5099308741 0.0216559712 0.9798352188
  0.9965004911 0.5001823597 0.9883100574
  0.9948611297 0.9801743029 0.4891756168
