phonopy:
  version: "3.5.0"
  frequency_unit_conversion_factor: 15.633302
  symmetry_tolerance: 1.00000e-05

physical_unit:
  atomic_mass: "AMU"
  length: "angstrom"
  force: "eV/angstrom"
  force_constants: "eV/angstrom^2"

space_group:
  type: "Fm-3m"
  number: 225
  Hall_symbol: "-F 4 2 3"

supercell_matrix:
- [   1,   0,   0 ]
- [   0,   1,   0 ]
- [   0,   0,   1 ]

primitive_cell:
  lattice:
  - [     4.255181555708464,     0.000000000000000,     0.000000000000000 ] # a
  - [     0.000000000000000,     4.255181555708464,     0.000000000000000 ] # b
  - [     0.000000000000000,     0.000000000000000,     4.255181555708464 ] # c
  points:
  - symbol: Mg # 1
    coordinates: [  1.000000000000000,  1.000000000000000,  1.000000000000000 ]
    mass: 24.305000
  - symbol: Mg # 2
    coordinates: [  1.000000000000000,  0.499999999999998,  0.499999999999998 ]
    mass: 24.305000
  - symbol: Mg # 3
    coordinates: [  0.499999999999998,  1.000000000000000,  0.499999999999998 ]
    mass: 24.305000
  - symbol: Mg # 4
    coordinates: [  0.499999999999998,  0.499999999999998,  1.000000000000000 ]
    mass: 24.305000
  - symbol: O # 5
    coordinates: [  0.499999999999998,  0.499999999999998,  0.499999999999998 ]
    mass: 15.999400
  - symbol: O # 6
    coordinates: [  0.499999999999998,  1.000000000000000,  1.000000000000000 ]
    mass: 15.999400
  - symbol: O # 7
    coordinates: [  1.000000000000000,  0.499999999999998,  1.000000000000000 ]
    mass: 15.999400
  - symbol: O # 8
    coordinates: [  1.000000000000000,  1.000000000000000,  0.499999999999998 ]
    mass: 15.999400
  reciprocal_lattice: # without 2pi
  - [     0.235007598831704,     0.000000000000000,     0.000000000000000 ] # a*
  - [     0.000000000000000,     0.235007598831704,     0.000000000000000 ] # b*
  - [     0.000000000000000,     0.000000000000000,     0.235007598831704 ] # c*

unit_cell:
  lattice:
  - [     4.255181555708464,    -0.000000000000000,    -0.000000000000000 ] # a
  - [    -0.000000000000000,     4.255181555708464,     0.000000000000000 ] # b
  - [    -0.000000000000000,     0.000000000000000,     4.255181555708464 ] # c
  points:
  - symbol: Mg # 1
    coordinates: [  1.000000000000000,  1.000000000000000,  1.000000000000000 ]
    mass: 24.305000
    reduced_to: 1
  - symbol: Mg # 2
    coordinates: [  1.000000000000000,  0.499999999999998,  0.499999999999998 ]
    mass: 24.305000
    reduced_to: 2
  - symbol: Mg # 3
    coordinates: [  0.499999999999998,  1.000000000000000,  0.499999999999998 ]
    mass: 24.305000
    reduced_to: 3
  - symbol: Mg # 4
    coordinates: [  0.499999999999998,  0.499999999999998,  1.000000000000000 ]
    mass: 24.305000
    reduced_to: 4
  - symbol: O # 5
    coordinates: [  0.499999999999998,  0.499999999999998,  0.499999999999998 ]
    mass: 15.999400
    reduced_to: 5
  - symbol: O # 6
    coordinates: [  0.499999999999998,  1.000000000000000,  1.000000000000000 ]
    mass: 15.999400
    reduced_to: 6
  - symbol: O # 7
    coordinates: [  1.000000000000000,  0.499999999999998,  1.000000000000000 ]
    mass: 15.999400
    reduced_to: 7
  - symbol: O # 8
    coordinates: [  1.000000000000000,  1.000000000000000,  0.499999999999998 ]
    mass: 15.999400
    reduced_to: 8

supercell:
  lattice:
  - [     4.255181555708464,     0.000000000000000,     0.000000000000000 ] # a
  - [     0.000000000000000,     4.255181555708464,     0.000000000000000 ] # b
  - [     0.000000000000000,     0.000000000000000,     4.255181555708464 ] # c
  points:
  - symbol: Mg # 1
    coordinates: [  1.000000000000000,  1.000000000000000,  1.000000000000000 ]
    mass: 24.305000
    reduced_to: 1
  - symbol: Mg # 2
    coordinates: [  1.000000000000000,  0.499999999999998,  0.499999999999998 ]
    mass: 24.305000
    reduced_to: 2
  - symbol: Mg # 3
    coordinates: [  0.499999999999998,  1.000000000000000,  0.499999999999998 ]
    mass: 24.305000
    reduced_to: 3
  - symbol: Mg # 4
    coordinates: [  0.499999999999998,  0.499999999999998,  1.000000000000000 ]
    mass: 24.305000
    reduced_to: 4
  - symbol: O # 5
    coordinates: [  0.499999999999998,  0.499999999999998,  0.499999999999998 ]
    mass: 15.999400
    reduced_to: 5
  - symbol: O # 6
    coordinates: [  0.499999999999998,  1.000000000000000,  1.000000000000000 ]
    mass: 15.999400
    reduced_to: 6
  - symbol: O # 7
    coordinates: [  1.000000000000000,  0.499999999999998,  1.000000000000000 ]
    mass: 15.999400
    reduced_to: 7
  - symbol: O # 8
    coordinates: [  1.000000000000000,  1.000000000000000,  0.499999999999998 ]
    mass: 15.999400
    reduced_to: 8

displacements:
- atom:    1
  displacement:
    [   0.0150000000000000,  0.0000000000000000,  0.0000000000000000 ]
  forces:
  - [  -0.1242362767477848, -0.0000000000000551, -0.0000000000000561 ]
  - [  -0.0110652717152335,  0.0000000000000551,  0.0000000000000554 ]
  - [   0.0377461198038312, -0.0000000000000554,  0.0000000000000547 ]
  - [   0.0377461198038328,  0.0000000000000560, -0.0000000000000575 ]
  - [  -0.0045197321665963,  0.0000000000000603,  0.0000000000000567 ]
  - [   0.0294480266349370, -0.0000000000000575, -0.0000000000000577 ]
  - [   0.0174405071935025,  0.0000000000000568, -0.0000000000000514 ]
  - [   0.0174405071935111, -0.0000000000000600,  0.0000000000000563 ]
- atom:    1
  displacement:
    [  -0.0150000000000000,  0.0000000000000000,  0.0000000000000000 ]
  forces:
  - [   0.1242362767476787, -0.0000000000000560, -0.0000000000000560 ]
  - [   0.0110652717151199,  0.0000000000000551,  0.0000000000000552 ]
  - [  -0.0377461198037270, -0.0000000000000546,  0.0000000000000555 ]
  - [  -0.0377461198037236,  0.0000000000000562, -0.0000000000000567 ]
  - [   0.0045197321667082,  0.0000000000000612,  0.0000000000000564 ]
  - [  -0.0294480266348299, -0.0000000000000583, -0.0000000000000594 ]
  - [  -0.0174405071936175,  0.0000000000000576, -0.0000000000000509 ]
  - [  -0.0174405071936090, -0.0000000000000613,  0.0000000000000562 ]
- atom:    5
  displacement:
    [   0.0150000000000000,  0.0000000000000000,  0.0000000000000000 ]
  forces:
  - [  -0.0045176929972405, -0.0000000000000559, -0.0000000000000547 ]
  - [   0.0294434368242147,  0.0000000000000557,  0.0000000000000540 ]
  - [   0.0174381221696897, -0.0000000000000546,  0.0000000000000552 ]
  - [   0.0174381221696932,  0.0000000000000563, -0.0000000000000541 ]
  - [  -0.1356862291661850,  0.0000000000000604,  0.0000000000000521 ]
  - [  -0.0073951974654831, -0.0000000000000579, -0.0000000000000589 ]
  - [   0.0416397192326507,  0.0000000000000585, -0.0000000000000500 ]
  - [   0.0416397192326602, -0.0000000000000624,  0.0000000000000562 ]
- atom:    5
  displacement:
    [  -0.0150000000000000,  0.0000000000000000,  0.0000000000000000 ]
  forces:
  - [   0.0045176929971282, -0.0000000000000560, -0.0000000000000554 ]
  - [  -0.0294434368243249,  0.0000000000000552,  0.0000000000000550 ]
  - [  -0.0174381221695868, -0.0000000000000544,  0.0000000000000545 ]
  - [  -0.0174381221695832,  0.0000000000000564, -0.0000000000000546 ]
  - [   0.1356862291662949,  0.0000000000000592,  0.0000000000000544 ]
  - [   0.0073951974655931, -0.0000000000000583, -0.0000000000000588 ]
  - [  -0.0416397192327652,  0.0000000000000592, -0.0000000000000525 ]
  - [  -0.0416397192327563, -0.0000000000000610,  0.0000000000000577 ]
