<?xml version='1.0' encoding='utf-8'?>
<modeling>
 <generator>
  <i name="program" type="string">vasp </i>
  <i name="version" type="string">mace-ase  </i>
  <i name="platform" type="string">mace-ase</i>
  <i name="date" type="string">2026 04 13</i>
  <i name="time" type="string">02:59:38</i>
 </generator>
 <incar>
  <i name="SYSTEM" type="string">Pt</i>
  <i name="NSW" type="int">   100</i>
  <i name="EDIFFG">      -0.01000000</i>
  <i name="IBRION" type="int">   1</i>
  <i name="POTIM">      0.80000000</i>
  <i name="ISIF" type="int">   2</i>
  <i name="IMAGES" type="int">   3</i>
  <i name="SPRING" type="int">   -5</i>
 </incar>
 <parameters>
  <separator name="electronic">
   <i type="int" name="NELM">   60</i>
   <i type="logical" name="LCHIMAG"> F  </i>
   <i name="EDIFF">      0.00010000</i>
  </separator>
  <separator name="ionic">
   <i type="int" name="NSW">   100</i>
   <i type="int" name="IBRION">   1</i>
   <i type="int" name="ISIF">   2</i>
   <i name="EDIFFG">      -0.01000000</i>
   <i type="int" name="LORBIT">   0</i>
  </separator>
 </parameters>
 <atominfo>
  <atoms>     17 </atoms>
  <types>      1 </types>
  <array name="atoms">
   <dimension dim="1">ion</dimension>
   <field type="string">element</field>
   <field type="int">atomtype</field>
   <set>
    <rc>
     <c>Pt</c>
     <c>   1</c>
    </rc>
    <rc>
     <c>Pt</c>
     <c>   1</c>
    </rc>
    <rc>
     <c>Pt</c>
     <c>   1</c>
    </rc>
    <rc>
     <c>Pt</c>
     <c>   1</c>
    </rc>
    <rc>
     <c>Pt</c>
     <c>   1</c>
    </rc>
    <rc>
     <c>Pt</c>
     <c>   1</c>
    </rc>
    <rc>
     <c>Pt</c>
     <c>   1</c>
    </rc>
    <rc>
     <c>Pt</c>
     <c>   1</c>
    </rc>
    <rc>
     <c>Pt</c>
     <c>   1</c>
    </rc>
    <rc>
     <c>Pt</c>
     <c>   1</c>
    </rc>
    <rc>
     <c>Pt</c>
     <c>   1</c>
    </rc>
    <rc>
     <c>Pt</c>
     <c>   1</c>
    </rc>
    <rc>
     <c>Pt</c>
     <c>   1</c>
    </rc>
    <rc>
     <c>Pt</c>
     <c>   1</c>
    </rc>
    <rc>
     <c>Pt</c>
     <c>   1</c>
    </rc>
    <rc>
     <c>Pt</c>
     <c>   1</c>
    </rc>
    <rc>
     <c>Pt</c>
     <c>   1</c>
    </rc>
   </set>
  </array>
  <array name="atomtypes">
   <dimension dim="1">type</dimension>
   <field type="int">atomspertype</field>
   <field type="string">element</field>
   <field>mass</field>
   <field>valence</field>
   <field type="string">pseudopotential</field>
   <set>
    <rc>
     <c>     17</c>
     <c>Pt</c>
     <c>      195.08400000</c>
     <c>       0.00000000</c>
     <c>  PAW_PBE Pt (MACE)                    </c>
    </rc>
   </set>
  </array>
 </atominfo>
 <structure name="initialpos">
  <crystal>
   <varray name="basis">
    <v>        5.62024000       0.00000000       0.00000000 </v>
    <v>        0.00000000       5.62024000       0.00000000 </v>
    <v>        0.00000000       0.00000000      16.86072000 </v>
   </varray>
   <i name="volume">      532.58120922 </i>
   <varray name="rec_basis">
    <v>        0.17792834       0.00000000       0.00000000 </v>
    <v>        0.00000000       0.17792834       0.00000000 </v>
    <v>        0.00000000       0.00000000       0.05930945 </v>
   </varray>
  </crystal>
  <varray name="positions">
   <v>       -0.00030903       0.00288400      -0.00544110 </v>
   <v>       -0.00025140       0.50025140      -0.00559430 </v>
   <v>        0.49732465       0.00267535      -0.00546127 </v>
   <v>        0.49711600       0.50030903      -0.00544110 </v>
   <v>        0.24636500       0.25363500       0.11413465 </v>
   <v>        0.74757280       0.25398756       0.11470145 </v>
   <v>        0.24601244       0.75242720       0.11470145 </v>
   <v>        0.74833735       0.75166265       0.11004858 </v>
   <v>       -0.00860268       0.00829591       0.23559836 </v>
   <v>       -0.00150325       0.50150325       0.23656081 </v>
   <v>        0.48902166       0.01097834       0.23319234 </v>
   <v>        0.49170409       0.50860268       0.23559836 </v>
   <v>        0.45126708       0.04873292       0.44190108 </v>
   <v>        0.72631967       0.26692386       0.34974270 </v>
   <v>        0.23307614       0.77368033       0.34974270 </v>
   <v>        0.74460283       0.75539717       0.35865082 </v>
   <v>        0.14959882       0.35040118       0.39596271 </v>
  </varray>
 </structure>
 <calculation>
  <scstep>
   <energy>
    <i name="e_fr_energy">          -94.05880485 </i>
    <i name="e_wo_entrp">          -94.05880485 </i>
    <i name="e_0_energy">          -94.05880485 </i>
   </energy>
  </scstep>
  <structure>
   <crystal>
    <varray name="basis">
     <v>        5.62024000       0.00000000       0.00000000 </v>
     <v>        0.00000000       5.62024000       0.00000000 </v>
     <v>        0.00000000       0.00000000      16.86072000 </v>
    </varray>
    <i name="volume">      532.58120922 </i>
    <varray name="rec_basis">
     <v>        0.17792834       0.00000000       0.00000000 </v>
     <v>        0.00000000       0.17792834       0.00000000 </v>
     <v>        0.00000000       0.00000000       0.05930945 </v>
    </varray>
   </crystal>
   <varray name="positions">
    <v>       -0.00030903       0.00288400      -0.00544110 </v>
    <v>       -0.00025140       0.50025140      -0.00559430 </v>
    <v>        0.49732465       0.00267535      -0.00546127 </v>
    <v>        0.49711600       0.50030903      -0.00544110 </v>
    <v>        0.24636500       0.25363500       0.11413465 </v>
    <v>        0.74757280       0.25398756       0.11470145 </v>
    <v>        0.24601244       0.75242720       0.11470145 </v>
    <v>        0.74833735       0.75166265       0.11004858 </v>
    <v>       -0.00860268       0.00829591       0.23559836 </v>
    <v>       -0.00150325       0.50150325       0.23656081 </v>
    <v>        0.48902166       0.01097834       0.23319234 </v>
    <v>        0.49170409       0.50860268       0.23559836 </v>
    <v>        0.45126708       0.04873292       0.44190108 </v>
    <v>        0.72631967       0.26692386       0.34974270 </v>
    <v>        0.23307614       0.77368033       0.34974270 </v>
    <v>        0.74460283       0.75539717       0.35865082 </v>
    <v>        0.14959882       0.35040118       0.39596271 </v>
   </varray>
  </structure>
  <varray name="forces">
   <v>        0.01046561       0.02987712       0.30171713 </v>
   <v>        0.00553039      -0.00553039       0.25701221 </v>
   <v>       -0.02189036       0.02189036       0.32578512 </v>
   <v>       -0.02987712      -0.01046561       0.30171713 </v>
   <v>       -0.01103295       0.01103295      -0.07093577 </v>
   <v>       -0.04415571       0.02321912       0.00476289 </v>
   <v>       -0.02321912       0.04415571       0.00476289 </v>
   <v>       -0.02515049       0.02515049       0.20856270 </v>
   <v>       -0.11179416      -0.05210447      -0.14650813 </v>
   <v>       -0.11329479       0.11329479      -0.02614019 </v>
   <v>        0.03614218      -0.03614218       0.05652484 </v>
   <v>        0.05210447       0.11179416      -0.14650813 </v>
   <v>        0.16010761      -0.16010761       0.00222563 </v>
   <v>       -0.11811822       0.06076450      -0.12814093 </v>
   <v>       -0.06076450       0.11811822      -0.12814093 </v>
   <v>       -0.02020339       0.02020339      -0.30818988 </v>
   <v>        0.31515054      -0.31515054      -0.50850659 </v>
  </varray>
  <varray name="stress">
   <v>      -42.15974203       8.48786452       4.14575814 </v>
   <v>        8.48786452     -42.15974203      -4.14575814 </v>
   <v>        4.14575814      -4.14575814     -22.98338315 </v>
  </varray>
  <energy>
   <i name="e_fr_energy">          -94.05880485 </i>
   <i name="e_wo_entrp">          -94.05880485 </i>
   <i name="e_0_energy">          -94.05880485 </i>
  </energy>
 </calculation>
 <calculation>
  <scstep>
   <energy>
    <i name="e_fr_energy">          -94.07891964 </i>
    <i name="e_wo_entrp">          -94.07891964 </i>
    <i name="e_0_energy">          -94.07891964 </i>
   </energy>
  </scstep>
  <structure>
   <crystal>
    <varray name="basis">
     <v>        5.62024000       0.00000000       0.00000000 </v>
     <v>        0.00000000       5.62024000       0.00000000 </v>
     <v>        0.00000000       0.00000000      16.86072000 </v>
    </varray>
    <i name="volume">      532.58120922 </i>
    <varray name="rec_basis">
     <v>        0.17792834       0.00000000       0.00000000 </v>
     <v>        0.00000000       0.17792834       0.00000000 </v>
     <v>        0.00000000       0.00000000       0.05930945 </v>
    </varray>
   </crystal>
   <varray name="positions">
    <v>       -0.00020622       0.00301486      -0.00489243 </v>
    <v>       -0.00017841       0.50017841      -0.00512896 </v>
    <v>        0.49723408       0.00276592      -0.00487011 </v>
    <v>        0.49698514       0.50020622      -0.00489243 </v>
    <v>        0.24639563       0.25360437       0.11398074 </v>
    <v>        0.74738546       0.25401651       0.11469508 </v>
    <v>        0.24598349       0.75261454       0.11469508 </v>
    <v>        0.74823787       0.75176213       0.11040731 </v>
    <v>       -0.00908257       0.00772219       0.23529395 </v>
    <v>       -0.00189950       0.50189950       0.23643722 </v>
    <v>        0.48930024       0.01069976       0.23331106 </v>
    <v>        0.49227781       0.50908257       0.23529395 </v>
    <v>        0.45112526       0.04887474       0.44155394 </v>
    <v>        0.72625915       0.26683655       0.34939660 </v>
    <v>        0.23316345       0.77374085       0.34939660 </v>
    <v>        0.74462640       0.75537360       0.35809222 </v>
    <v>        0.14985116       0.35014884       0.39582841 </v>
   </varray>
  </structure>
  <varray name="forces">
   <v>       -0.00597978       0.01681022       0.25991833 </v>
   <v>       -0.00970528       0.00970528       0.22543971 </v>
   <v>       -0.00777911       0.00777911       0.27971498 </v>
   <v>       -0.01681022       0.00597978       0.25991833 </v>
   <v>       -0.01418981       0.01418981      -0.00155593 </v>
   <v>       -0.03728226       0.02262958       0.02877753 </v>
   <v>       -0.02262958       0.03728226       0.02877753 </v>
   <v>       -0.02293989       0.02293989       0.19221501 </v>
   <v>       -0.07742499      -0.00706370      -0.14177321 </v>
   <v>       -0.06911770       0.06911770      -0.02847831 </v>
   <v>        0.00084656      -0.00084656       0.02759011 </v>
   <v>        0.00706370       0.07742499      -0.14177321 </v>
   <v>        0.18085745      -0.18085745       0.02114073 </v>
   <v>       -0.08883537       0.07164763      -0.10462820 </v>
   <v>       -0.07164763       0.08883537      -0.10462820 </v>
   <v>       -0.02143036       0.02143036      -0.26670840 </v>
   <v>        0.27700428      -0.27700428      -0.53394679 </v>
  </varray>
  <varray name="stress">
   <v>      -40.58224308       8.40597059       4.17119625 </v>
   <v>        8.40597059     -40.58224308      -4.17119625 </v>
   <v>        4.17119625      -4.17119625     -21.05314137 </v>
  </varray>
  <energy>
   <i name="e_fr_energy">          -94.07891964 </i>
   <i name="e_wo_entrp">          -94.07891964 </i>
   <i name="e_0_energy">          -94.07891964 </i>
  </energy>
 </calculation>
 <calculation>
  <scstep>
   <energy>
    <i name="e_fr_energy">          -94.09636927 </i>
    <i name="e_wo_entrp">          -94.09636927 </i>
    <i name="e_0_energy">          -94.09636927 </i>
   </energy>
  </scstep>
  <structure>
   <crystal>
    <varray name="basis">
     <v>        5.62024000       0.00000000       0.00000000 </v>
     <v>        0.00000000       5.62024000       0.00000000 </v>
     <v>        0.00000000       0.00000000      16.86072000 </v>
    </varray>
    <i name="volume">      532.58120922 </i>
    <varray name="rec_basis">
     <v>        0.17792834       0.00000000       0.00000000 </v>
     <v>        0.00000000       0.17792834       0.00000000 </v>
     <v>        0.00000000       0.00000000       0.05930945 </v>
    </varray>
   </crystal>
   <varray name="positions">
    <v>       -0.00019397       0.00308194      -0.00433889 </v>
    <v>       -0.00019434       0.50019434      -0.00464862 </v>
    <v>        0.49722216       0.00277784      -0.00427752 </v>
    <v>        0.49691806       0.50019397      -0.00433889 </v>
    <v>        0.24640956       0.25359044       0.11395301 </v>
    <v>        0.74721591       0.25404609       0.11474172 </v>
    <v>        0.24595391       0.75278409       0.11474172 </v>
    <v>        0.74813827       0.75186173       0.11079372 </v>
    <v>       -0.00942504       0.00734415       0.23494655 </v>
    <v>       -0.00209083       0.50209083       0.23628085 </v>
    <v>        0.48941466       0.01058534       0.23337359 </v>
    <v>        0.49265585       0.50942504       0.23494655 </v>
    <v>        0.45108676       0.04891324       0.44118321 </v>
    <v>        0.72638234       0.26680984       0.34905717 </v>
    <v>        0.23319016       0.77361766       0.34905717 </v>
    <v>        0.74464487       0.75535513       0.35752654 </v>
    <v>        0.14990833       0.35009167       0.39560038 </v>
   </varray>
  </structure>
  <varray name="forces">
   <v>       -0.01593280       0.00941337       0.22185271 </v>
   <v>       -0.01897165       0.01897165       0.19693470 </v>
   <v>        0.00006493      -0.00006493       0.23766762 </v>
   <v>       -0.00941337       0.01593280       0.22185271 </v>
   <v>       -0.01746067       0.01746067       0.03648743 </v>
   <v>       -0.03204564       0.02362692       0.03951714 </v>
   <v>       -0.02362692       0.03204564       0.03951714 </v>
   <v>       -0.02031636       0.02031636       0.17474406 </v>
   <v>       -0.05186264       0.02035169      -0.12150987 </v>
   <v>       -0.04081711       0.04081711      -0.02376088 </v>
   <v>       -0.02234885       0.02234885       0.01800223 </v>
   <v>       -0.02035169       0.05186264      -0.12150987 </v>
   <v>        0.18833271      -0.18833271       0.02726850 </v>
   <v>       -0.08371257       0.07508314      -0.08863540 </v>
   <v>       -0.07508314       0.08371257      -0.08863540 </v>
   <v>       -0.02399564       0.02399564      -0.23250808 </v>
   <v>        0.26754138      -0.26754138      -0.53728471 </v>
  </varray>
  <varray name="stress">
   <v>      -38.87101713       8.42544754       4.19291010 </v>
   <v>        8.42544754     -38.87101713      -4.19291010 </v>
   <v>        4.19291010      -4.19291010     -19.03641333 </v>
  </varray>
  <energy>
   <i name="e_fr_energy">          -94.09636927 </i>
   <i name="e_wo_entrp">          -94.09636927 </i>
   <i name="e_0_energy">          -94.09636927 </i>
  </energy>
 </calculation>
 <calculation>
  <scstep>
   <energy>
    <i name="e_fr_energy">          -94.11144857 </i>
    <i name="e_wo_entrp">          -94.11144857 </i>
    <i name="e_0_energy">          -94.11144857 </i>
   </energy>
  </scstep>
  <structure>
   <crystal>
    <varray name="basis">
     <v>        5.62024000       0.00000000       0.00000000 </v>
     <v>        0.00000000       5.62024000       0.00000000 </v>
     <v>        0.00000000       0.00000000      16.86072000 </v>
    </varray>
    <i name="volume">      532.58120922 </i>
    <varray name="rec_basis">
     <v>        0.17792834       0.00000000       0.00000000 </v>
     <v>        0.00000000       0.17792834       0.00000000 </v>
     <v>        0.00000000       0.00000000       0.05930945 </v>
    </varray>
   </crystal>
   <varray name="positions">
    <v>       -0.00025404       0.00310144      -0.00380542 </v>
    <v>       -0.00028280       0.50028280      -0.00417204 </v>
    <v>        0.49726934       0.00273066      -0.00371128 </v>
    <v>        0.49689856       0.50025404      -0.00380542 </v>
    <v>        0.24640042       0.25359958       0.11401713 </v>
    <v>        0.74706860       0.25408599       0.11482162 </v>
    <v>        0.24591401       0.75293140       0.11482162 </v>
    <v>        0.74804834       0.75195166       0.11118756 </v>
    <v>       -0.00962234       0.00712076       0.23460548 </v>
    <v>       -0.00211423       0.50211423       0.23611034 </v>
    <v>        0.48939250       0.01060750       0.23340855 </v>
    <v>        0.49287924       0.50962234       0.23460548 </v>
    <v>        0.45108153       0.04891847       0.44077251 </v>
    <v>        0.72655798       0.26680544       0.34872381 </v>
    <v>        0.23319456       0.77344202       0.34872381 </v>
    <v>        0.74464612       0.75535388       0.35696904 </v>
    <v>        0.14991405       0.35008595       0.39532547 </v>
   </varray>
  </structure>
  <varray name="forces">
   <v>       -0.02046637       0.00673193       0.18812598 </v>
   <v>       -0.02320323       0.02320323       0.17097064 </v>
   <v>        0.00273359      -0.00273359       0.20089153 </v>
   <v>       -0.00673193       0.02046637       0.18812598 </v>
   <v>       -0.01962880       0.01962880       0.05071198 </v>
   <v>       -0.02887124       0.02424823       0.04178037 </v>
   <v>       -0.02424823       0.02887124       0.04178037 </v>
   <v>       -0.01865887       0.01865887       0.15855398 </v>
   <v>       -0.03604166       0.03547511      -0.09469014 </v>
   <v>       -0.02510980       0.02510980      -0.01287311 </v>
   <v>       -0.03500959       0.03500959       0.01713836 </v>
   <v>       -0.03547511       0.03604166      -0.09469014 </v>
   <v>        0.19189574      -0.19189574       0.03575263 </v>
   <v>       -0.08403026       0.07838751      -0.07693388 </v>
   <v>       -0.07838751       0.08403026      -0.07693388 </v>
   <v>       -0.02512926       0.02512926      -0.20472775 </v>
   <v>        0.26636253      -0.26636253      -0.53298293 </v>
  </varray>
  <varray name="stress">
   <v>      -37.10397437       8.47998513       4.21872968 </v>
   <v>        8.47998513     -37.10397437      -4.21872968 </v>
   <v>        4.21872968      -4.21872968     -16.99383693 </v>
  </varray>
  <energy>
   <i name="e_fr_energy">          -94.11144857 </i>
   <i name="e_wo_entrp">          -94.11144857 </i>
   <i name="e_0_energy">          -94.11144857 </i>
  </energy>
 </calculation>
 <calculation>
  <scstep>
   <energy>
    <i name="e_fr_energy">          -94.12439605 </i>
    <i name="e_wo_entrp">          -94.12439605 </i>
    <i name="e_0_energy">          -94.12439605 </i>
   </energy>
  </scstep>
  <structure>
   <crystal>
    <varray name="basis">
     <v>        5.62024000       0.00000000       0.00000000 </v>
     <v>        0.00000000       5.62024000       0.00000000 </v>
     <v>        0.00000000       0.00000000      16.86072000 </v>
    </varray>
    <i name="volume">      532.58120922 </i>
    <varray name="rec_basis">
     <v>        0.17792834       0.00000000       0.00000000 </v>
     <v>        0.00000000       0.17792834       0.00000000 </v>
     <v>        0.00000000       0.00000000       0.05930945 </v>
    </varray>
   </crystal>
   <varray name="positions">
    <v>       -0.00035829       0.00309929      -0.00329909 </v>
    <v>       -0.00041845       0.50041845      -0.00370588 </v>
    <v>        0.49734703       0.00265297      -0.00317817 </v>
    <v>        0.49690071       0.50035829      -0.00329909 </v>
    <v>        0.24637242       0.25362758       0.11413051 </v>
    <v>        0.74693537       0.25413428       0.11491742 </v>
    <v>        0.24586572       0.75306463       0.11491742 </v>
    <v>        0.74796463       0.75203537       0.11158349 </v>
    <v>       -0.00970600       0.00700074       0.23430113 </v>
    <v>       -0.00202700       0.50202700       0.23594583 </v>
    <v>        0.48928313       0.01071687       0.23343492 </v>
    <v>        0.49299926       0.50970600       0.23430113 </v>
    <v>        0.45108638       0.04891362       0.44032937 </v>
    <v>        0.72674950       0.26682678       0.34838900 </v>
    <v>        0.23317322       0.77325050       0.34838900 </v>
    <v>        0.74463842       0.75536158       0.35641744 </v>
    <v>        0.14991804       0.35008196       0.39502382 </v>
   </varray>
  </structure>
  <varray name="forces">
   <v>       -0.02182685       0.00670862       0.15795180 </v>
   <v>       -0.02449200       0.02449200       0.14670668 </v>
   <v>        0.00240930      -0.00240930       0.16842982 </v>
   <v>       -0.00670862       0.02182685       0.15795180 </v>
   <v>       -0.02072795       0.02072795       0.05143556 </v>
   <v>       -0.02705253       0.02417656       0.04042320 </v>
   <v>       -0.02417656       0.02705253       0.04042320 </v>
   <v>       -0.01791234       0.01791234       0.14416504 </v>
   <v>       -0.02767590       0.04406903      -0.06865793 </v>
   <v>       -0.01718917       0.01718917      -0.00131756 </v>
   <v>       -0.04080624       0.04080624       0.01857348 </v>
   <v>       -0.04406903       0.02767590      -0.06865793 </v>
   <v>        0.19510208      -0.19510208       0.04789420 </v>
   <v>       -0.08517933       0.08115617      -0.06494244 </v>
   <v>       -0.08115617       0.08517933      -0.06494244 </v>
   <v>       -0.02577201       0.02577201      -0.17983534 </v>
   <v>        0.26723331      -0.26723331      -0.52560116 </v>
  </varray>
  <varray name="stress">
   <v>      -35.31663430       8.54003694       4.25420449 </v>
   <v>        8.54003694     -35.31663430      -4.25420449 </v>
   <v>        4.25420449      -4.25420449     -14.95830967 </v>
  </varray>
  <energy>
   <i name="e_fr_energy">          -94.12439605 </i>
   <i name="e_wo_entrp">          -94.12439605 </i>
   <i name="e_0_energy">          -94.12439605 </i>
  </energy>
 </calculation>
 <calculation>
  <scstep>
   <energy>
    <i name="e_fr_energy">          -94.13548038 </i>
    <i name="e_wo_entrp">          -94.13548038 </i>
    <i name="e_0_energy">          -94.13548038 </i>
   </energy>
  </scstep>
  <structure>
   <crystal>
    <varray name="basis">
     <v>        5.62024000       0.00000000       0.00000000 </v>
     <v>        0.00000000       5.62024000       0.00000000 </v>
     <v>        0.00000000       0.00000000      16.86072000 </v>
    </varray>
    <i name="volume">      532.58120922 </i>
    <varray name="rec_basis">
     <v>        0.17792834       0.00000000       0.00000000 </v>
     <v>        0.00000000       0.17792834       0.00000000 </v>
     <v>        0.00000000       0.00000000       0.05930945 </v>
    </varray>
   </crystal>
   <varray name="positions">
    <v>       -0.00048701       0.00309510      -0.00281885 </v>
    <v>       -0.00058444       0.50058444      -0.00325074 </v>
    <v>        0.49743420       0.00256580      -0.00267622 </v>
    <v>        0.49690490       0.50048701      -0.00281885 </v>
    <v>        0.24633157       0.25366843       0.11426404 </v>
    <v>        0.74680724       0.25418592       0.11502143 </v>
    <v>        0.24581408       0.75319276       0.11502143 </v>
    <v>        0.74788029       0.75211971       0.11198576 </v>
    <v>       -0.00971027       0.00695599       0.23404325 </v>
    <v>       -0.00187153       0.50187153       0.23579386 </v>
    <v>        0.48912616       0.01087384       0.23346009 </v>
    <v>        0.49304401       0.50971027       0.23404325 </v>
    <v>        0.45110476       0.04889524       0.43986003 </v>
    <v>        0.72695234       0.26687439       0.34805078 </v>
    <v>        0.23312561       0.77304766       0.34805078 </v>
    <v>        0.74462453       0.75537547       0.35586650 </v>
    <v>        0.14993266       0.35006734       0.39470172 </v>
   </varray>
  </structure>
  <varray name="forces">
   <v>       -0.02181756       0.00766733       0.13059730 </v>
   <v>       -0.02451824       0.02451824       0.12372710 </v>
   <v>        0.00084941      -0.00084941       0.13919346 </v>
   <v>       -0.00766733       0.02181756       0.13059730 </v>
   <v>       -0.02105765       0.02105765       0.04553367 </v>
   <v>       -0.02597391       0.02377564       0.03779489 </v>
   <v>       -0.02377564       0.02597391       0.03779489 </v>
   <v>       -0.01761629       0.01761629       0.13063282 </v>
   <v>       -0.02394923       0.04932288      -0.04650570 </v>
   <v>       -0.01394859       0.01394859       0.00801401 </v>
   <v>       -0.04287823       0.04287823       0.01975768 </v>
   <v>       -0.04932288       0.02394923      -0.04650570 </v>
   <v>        0.19837530      -0.19837530       0.06302490 </v>
   <v>       -0.08662604       0.08300321      -0.05102310 </v>
   <v>       -0.08300321       0.08662604      -0.05102310 </v>
   <v>       -0.02629879       0.02629879      -0.15553235 </v>
   <v>        0.26922889      -0.26922889      -0.51607808 </v>
  </varray>
  <varray name="stress">
   <v>      -33.51919514       8.59901457       4.29798136 </v>
   <v>        8.59901457     -33.51919514      -4.29798136 </v>
   <v>        4.29798136      -4.29798136     -12.93889696 </v>
  </varray>
  <energy>
   <i name="e_fr_energy">          -94.13548038 </i>
   <i name="e_wo_entrp">          -94.13548038 </i>
   <i name="e_0_energy">          -94.13548038 </i>
  </energy>
 </calculation>
 <calculation>
  <scstep>
   <energy>
    <i name="e_fr_energy">          -94.14489580 </i>
    <i name="e_wo_entrp">          -94.14489580 </i>
    <i name="e_0_energy">          -94.14489580 </i>
   </energy>
  </scstep>
  <structure>
   <crystal>
    <varray name="basis">
     <v>        5.62024000       0.00000000       0.00000000 </v>
     <v>        0.00000000       5.62024000       0.00000000 </v>
     <v>        0.00000000       0.00000000      16.86072000 </v>
    </varray>
    <i name="volume">      532.58120922 </i>
    <varray name="rec_basis">
     <v>        0.17792834       0.00000000       0.00000000 </v>
     <v>        0.00000000       0.17792834       0.00000000 </v>
     <v>        0.00000000       0.00000000       0.05930945 </v>
    </varray>
   </crystal>
   <varray name="positions">
    <v>       -0.00063121       0.00309934      -0.00236333 </v>
    <v>       -0.00077466       0.50077466      -0.00280672 </v>
    <v>        0.49751952       0.00248048      -0.00220392 </v>
    <v>        0.49690066       0.50063121      -0.00236333 </v>
    <v>        0.24628325       0.25371675       0.11440013 </v>
    <v>        0.74667762       0.25423783       0.11513163 </v>
    <v>        0.24576217       0.75332238       0.11513163 </v>
    <v>        0.74779029       0.75220971       0.11239951 </v>
    <v>       -0.00965649       0.00697790       0.23383221 </v>
    <v>       -0.00167733       0.50167733       0.23565174 </v>
    <v>        0.48894672       0.01105328       0.23348484 </v>
    <v>        0.49302210       0.50965649       0.23383221 </v>
    <v>        0.45114379       0.04885621       0.43936815 </v>
    <v>        0.72716727       0.26694416       0.34771264 </v>
    <v>        0.23305584       0.77283273       0.34771264 </v>
    <v>        0.74460436       0.75539564       0.35531475 </v>
    <v>        0.14996539       0.35003461       0.39436348 </v>
   </varray>
  </structure>
  <varray name="forces">
   <v>       -0.02148496       0.00866857       0.10572445 </v>
   <v>       -0.02418574       0.02418574       0.10197634 </v>
   <v>       -0.00091011       0.00091011       0.11261594 </v>
   <v>       -0.00866857       0.02148496       0.10572445 </v>
   <v>       -0.02090234       0.02090234       0.03655658 </v>
   <v>       -0.02528182       0.02336815       0.03450532 </v>
   <v>       -0.02336815       0.02528182       0.03450532 </v>
   <v>       -0.01748973       0.01748973       0.11677479 </v>
   <v>       -0.02286313       0.05261444      -0.02883436 </v>
   <v>       -0.01373791       0.01373791       0.01481249 </v>
   <v>       -0.04313448       0.04313448       0.02018505 </v>
   <v>       -0.05261444       0.02286313      -0.02883436 </v>
   <v>        0.20163471      -0.20163471       0.08122735 </v>
   <v>       -0.08811374       0.08440436      -0.03550829 </v>
   <v>       -0.08440436       0.08811374      -0.03550829 </v>
   <v>       -0.02650182       0.02650182      -0.13098975 </v>
   <v>        0.27202659      -0.27202659      -0.50493302 </v>
  </varray>
  <varray name="stress">
   <v>      -31.71872470       8.65558155       4.34647445 </v>
   <v>        8.65558155     -31.71872470      -4.34647445 </v>
   <v>        4.34647445      -4.34647445     -10.94272131 </v>
  </varray>
  <energy>
   <i name="e_fr_energy">          -94.14489580 </i>
   <i name="e_wo_entrp">          -94.14489580 </i>
   <i name="e_0_energy">          -94.14489580 </i>
  </energy>
 </calculation>
 <calculation>
  <scstep>
   <energy>
    <i name="e_fr_energy">          -94.15279177 </i>
    <i name="e_wo_entrp">          -94.15279177 </i>
    <i name="e_0_energy">          -94.15279177 </i>
   </energy>
  </scstep>
  <structure>
   <crystal>
    <varray name="basis">
     <v>        5.62024000       0.00000000       0.00000000 </v>
     <v>        0.00000000       5.62024000       0.00000000 </v>
     <v>        0.00000000       0.00000000      16.86072000 </v>
    </varray>
    <i name="volume">      532.58120922 </i>
    <varray name="rec_basis">
     <v>        0.17792834       0.00000000       0.00000000 </v>
     <v>        0.00000000       0.17792834       0.00000000 </v>
     <v>        0.00000000       0.00000000       0.05930945 </v>
    </varray>
   </crystal>
   <varray name="positions">
    <v>       -0.00079134       0.00311553      -0.00193027 </v>
    <v>       -0.00099210       0.50099210      -0.00237257 </v>
    <v>        0.49759965       0.00240035      -0.00175978 </v>
    <v>        0.49688447       0.50079134      -0.00193027 </v>
    <v>        0.24623195       0.25376805       0.11452673 </v>
    <v>        0.74654098       0.25428956       0.11524791 </v>
    <v>        0.24571044       0.75345902       0.11524791 </v>
    <v>        0.74769054       0.75230946       0.11282922 </v>
    <v>       -0.00955172       0.00706936       0.23366482 </v>
    <v>       -0.00146946       0.50146946       0.23551276 </v>
    <v>        0.48876040       0.01123960       0.23350762 </v>
    <v>        0.49293064       0.50955172       0.23366482 </v>
    <v>        0.45120850       0.04879150       0.43885666 </v>
    <v>        0.72740089       0.26703548       0.34737872 </v>
    <v>        0.23296452       0.77259911       0.34737872 </v>
    <v>        0.74458085       0.75541915       0.35476190 </v>
    <v>        0.15002257       0.34997743       0.39401336 </v>
   </varray>
  </structure>
  <varray name="forces">
   <v>       -0.02126927       0.00936131       0.08305522 </v>
   <v>       -0.02378997       0.02378997       0.08138725 </v>
   <v>       -0.00243259       0.00243259       0.08833470 </v>
   <v>       -0.00936131       0.02126927       0.08305522 </v>
   <v>       -0.02052893       0.02052893       0.02632746 </v>
   <v>       -0.02475050       0.02309587       0.03056109 </v>
   <v>       -0.02309587       0.02475050       0.03056109 </v>
   <v>       -0.01746074       0.01746074       0.10182453 </v>
   <v>       -0.02330849       0.05456476      -0.01530081 </v>
   <v>       -0.01552797       0.01552797       0.01964122 </v>
   <v>       -0.04254592       0.04254592       0.02028906 </v>
   <v>       -0.05456476       0.02330849      -0.01530081 </v>
   <v>        0.20493492      -0.20493492       0.10230785 </v>
   <v>       -0.08980841       0.08554761      -0.01912605 </v>
   <v>       -0.08554761       0.08980841      -0.01912605 </v>
   <v>       -0.02641769       0.02641769      -0.10599568 </v>
   <v>        0.27547511      -0.27547511      -0.49249527 </v>
  </varray>
  <varray name="stress">
   <v>      -29.91847092       8.70821997       4.39700092 </v>
   <v>        8.70821997     -29.91847092      -4.39700092 </v>
   <v>        4.39700092      -4.39700092      -8.97537463 </v>
  </varray>
  <energy>
   <i name="e_fr_energy">          -94.15279177 </i>
   <i name="e_wo_entrp">          -94.15279177 </i>
   <i name="e_0_energy">          -94.15279177 </i>
  </energy>
 </calculation>
 <calculation>
  <scstep>
   <energy>
    <i name="e_fr_energy">          -94.15928081 </i>
    <i name="e_wo_entrp">          -94.15928081 </i>
    <i name="e_0_energy">          -94.15928081 </i>
   </energy>
  </scstep>
  <structure>
   <crystal>
    <varray name="basis">
     <v>        5.62024000       0.00000000       0.00000000 </v>
     <v>        0.00000000       5.62024000       0.00000000 </v>
     <v>        0.00000000       0.00000000      16.86072000 </v>
    </varray>
    <i name="volume">      532.58120922 </i>
    <varray name="rec_basis">
     <v>        0.17792834       0.00000000       0.00000000 </v>
     <v>        0.00000000       0.17792834       0.00000000 </v>
     <v>        0.00000000       0.00000000       0.05930945 </v>
    </varray>
   </crystal>
   <varray name="positions">
    <v>       -0.00097623       0.00314309      -0.00151679 </v>
    <v>       -0.00124743       0.50124743      -0.00194578 </v>
    <v>        0.49767694       0.00232306      -0.00134269 </v>
    <v>        0.49685691       0.50097623      -0.00151679 </v>
    <v>        0.24618075       0.25381925       0.11463275 </v>
    <v>        0.74639195       0.25434260       0.11537017 </v>
    <v>        0.24565740       0.75360805       0.11537017 </v>
    <v>        0.74757546       0.75242454       0.11327902 </v>
    <v>       -0.00938886       0.00724510       0.23353751 </v>
    <v>       -0.00127489       0.50127489       0.23536801 </v>
    <v>        0.48858010       0.01141990       0.23352753 </v>
    <v>        0.49275490       0.50938886       0.23353751 </v>
    <v>        0.45130346       0.04869654       0.43832728 </v>
    <v>        0.72766296       0.26714984       0.34705259 </v>
    <v>        0.23285016       0.77233704       0.34705259 </v>
    <v>        0.74455851       0.75544149       0.35420802 </v>
    <v>        0.15011206       0.34988794       0.39365714 </v>
   </varray>
  </structure>
  <varray name="forces">
   <v>       -0.02117604       0.00975488       0.06223810 </v>
   <v>       -0.02324569       0.02324569       0.06176017 </v>
   <v>       -0.00372704       0.00372704       0.06603033 </v>
   <v>       -0.00975488       0.02117604       0.06223810 </v>
   <v>       -0.02010592       0.02010592       0.01601886 </v>
   <v>       -0.02428902       0.02296828       0.02593498 </v>
   <v>       -0.02296828       0.02428902       0.02593498 </v>
   <v>       -0.01757339       0.01757339       0.08556325 </v>
   <v>       -0.02481419       0.05539749      -0.00535049 </v>
   <v>       -0.01856435       0.01856435       0.02340223 </v>
   <v>       -0.04157369       0.04157369       0.02057820 </v>
   <v>       -0.05539749       0.02481419      -0.00535049 </v>
   <v>        0.20851465      -0.20851465       0.12605870 </v>
   <v>       -0.09185835       0.08652244      -0.00259179 </v>
   <v>       -0.08652244       0.09185835      -0.00259179 </v>
   <v>       -0.02617966       0.02617966      -0.08066012 </v>
   <v>        0.27923578      -0.27923578      -0.47921320 </v>
  </varray>
  <varray name="stress">
   <v>      -28.11908508       8.75376316       4.44731542 </v>
   <v>        8.75376316     -28.11908508      -4.44731542 </v>
   <v>        4.44731542      -4.44731542      -7.04181096 </v>
  </varray>
  <energy>
   <i name="e_fr_energy">          -94.15928081 </i>
   <i name="e_wo_entrp">          -94.15928081 </i>
   <i name="e_0_energy">          -94.15928081 </i>
  </energy>
 </calculation>
 <calculation>
  <scstep>
   <energy>
    <i name="e_fr_energy">          -94.16445227 </i>
    <i name="e_wo_entrp">          -94.16445227 </i>
    <i name="e_0_energy">          -94.16445227 </i>
   </energy>
  </scstep>
  <structure>
   <crystal>
    <varray name="basis">
     <v>        5.62024000       0.00000000       0.00000000 </v>
     <v>        0.00000000       5.62024000       0.00000000 </v>
     <v>        0.00000000       0.00000000      16.86072000 </v>
    </varray>
    <i name="volume">      532.58120922 </i>
    <varray name="rec_basis">
     <v>        0.17792834       0.00000000       0.00000000 </v>
     <v>        0.00000000       0.17792834       0.00000000 </v>
     <v>        0.00000000       0.00000000       0.05930945 </v>
    </varray>
   </crystal>
   <varray name="positions">
    <v>       -0.00120430       0.00317964      -0.00112024 </v>
    <v>       -0.00156034       0.50156034      -0.00152307 </v>
    <v>        0.49775680       0.00224320      -0.00095328 </v>
    <v>        0.49682036       0.50120430      -0.00112024 </v>
    <v>        0.24613194       0.25386806       0.11470404 </v>
    <v>        0.74622260       0.25439977       0.11549789 </v>
    <v>        0.24560023       0.75377740       0.11549789 </v>
    <v>        0.74743344       0.75256656       0.11375544 </v>
    <v>       -0.00914145       0.00754027       0.23344809 </v>
    <v>       -0.00113230       0.50113230       0.23520649 </v>
    <v>        0.48842456       0.01157544       0.23354574 </v>
    <v>        0.49245973       0.50914145       0.23344809 </v>
    <v>        0.45143920       0.04856080       0.43778111 </v>
    <v>        0.72796936       0.26729161       0.34673707 </v>
    <v>        0.23270839       0.77203064       0.34673707 </v>
    <v>        0.74454323       0.75545677       0.35365302 </v>
    <v>        0.15024172       0.34975828       0.39330314 </v>
   </varray>
  </structure>
  <varray name="forces">
   <v>       -0.02093989       0.01003442       0.04288558 </v>
   <v>       -0.02224741       0.02224741       0.04286553 </v>
   <v>       -0.00509470       0.00509470       0.04539810 </v>
   <v>       -0.01003442       0.02093989       0.04288558 </v>
   <v>       -0.01976108       0.01976108       0.00678101 </v>
   <v>       -0.02386289       0.02300865       0.02070111 </v>
   <v>       -0.02300865       0.02386289       0.02070111 </v>
   <v>       -0.01784317       0.01784317       0.06808357 </v>
   <v>       -0.02735614       0.05500687       0.00151802 </v>
   <v>       -0.02212948       0.02212948       0.02697125 </v>
   <v>       -0.04050504       0.04050504       0.02139383 </v>
   <v>       -0.05500687       0.02735614       0.00151802 </v>
   <v>        0.21245704      -0.21245704       0.15194197 </v>
   <v>       -0.09463736       0.08723340       0.01356144 </v>
   <v>       -0.08723340       0.09463736       0.01356144 </v>
   <v>       -0.02598751       0.02598751      -0.05529123 </v>
   <v>        0.28319097      -0.28319097      -0.46547633 </v>
  </varray>
  <varray name="stress">
   <v>      -26.32227270       8.78789364       4.49446326 </v>
   <v>        8.78789364     -26.32227270      -4.49446326 </v>
   <v>        4.49446326      -4.49446326      -5.15119814 </v>
  </varray>
  <energy>
   <i name="e_fr_energy">          -94.16445227 </i>
   <i name="e_wo_entrp">          -94.16445227 </i>
   <i name="e_0_energy">          -94.16445227 </i>
  </energy>
 </calculation>
 <calculation>
  <scstep>
   <energy>
    <i name="e_fr_energy">          -94.16839247 </i>
    <i name="e_wo_entrp">          -94.16839247 </i>
    <i name="e_0_energy">          -94.16839247 </i>
   </energy>
  </scstep>
  <structure>
   <crystal>
    <varray name="basis">
     <v>        5.62024000       0.00000000       0.00000000 </v>
     <v>        0.00000000       5.62024000       0.00000000 </v>
     <v>        0.00000000       0.00000000      16.86072000 </v>
    </varray>
    <i name="volume">      532.58120922 </i>
    <varray name="rec_basis">
     <v>        0.17792834       0.00000000       0.00000000 </v>
     <v>        0.00000000       0.17792834       0.00000000 </v>
     <v>        0.00000000       0.00000000       0.05930945 </v>
    </varray>
   </crystal>
   <varray name="positions">
    <v>       -0.00151314       0.00322220      -0.00074016 </v>
    <v>       -0.00196859       0.50196859      -0.00110066 </v>
    <v>        0.49784384       0.00215616      -0.00059797 </v>
    <v>        0.49677780       0.50151314      -0.00074016 </v>
    <v>        0.24608696       0.25391304       0.11471660 </v>
    <v>        0.74601598       0.25446834       0.11563016 </v>
    <v>        0.24553166       0.75398402       0.11563016 </v>
    <v>        0.74723663       0.75276337       0.11427464 </v>
    <v>       -0.00873847       0.00804225       0.23339789 </v>
    <v>       -0.00111849       0.50111849       0.23501143 </v>
    <v>        0.48833741       0.01166259       0.23356754 </v>
    <v>        0.49195775       0.50873847       0.23339789 </v>
    <v>        0.45164161       0.04835839       0.43721676 </v>
    <v>        0.72834370       0.26746721       0.34643509 </v>
    <v>        0.23253279       0.77165630       0.34643509 </v>
    <v>        0.74454240       0.75545760       0.35309591 </v>
    <v>        0.15042763       0.34957237       0.39296807 </v>
   </varray>
  </structure>
  <varray name="forces">
   <v>       -0.02013454       0.01047586       0.02476752 </v>
   <v>       -0.02028850       0.02028850       0.02464124 </v>
   <v>       -0.00703097       0.00703097       0.02636676 </v>
   <v>       -0.01047586       0.02013454       0.02476752 </v>
   <v>       -0.01963005       0.01963005       0.00019187 </v>
   <v>       -0.02344339       0.02329136       0.01491838 </v>
   <v>       -0.02329136       0.02344339       0.01491838 </v>
   <v>       -0.01821718       0.01821718       0.04924577 </v>
   <v>       -0.03149738       0.05274412       0.00574036 </v>
   <v>       -0.02524689       0.02524689       0.03155841 </v>
   <v>       -0.03974673       0.03974673       0.02256276 </v>
   <v>       -0.05274412       0.03149738       0.00574036 </v>
   <v>        0.21670817      -0.21670817       0.17970425 </v>
   <v>       -0.09802131       0.08794079       0.02885410 </v>
   <v>       -0.08794079       0.09802131       0.02885410 </v>
   <v>       -0.02582027       0.02582027      -0.03054799 </v>
   <v>        0.28682115      -0.28682115      -0.45228378 </v>
  </varray>
  <varray name="stress">
   <v>      -24.53717517       8.80149559       4.53216323 </v>
   <v>        8.80149559     -24.53717517      -4.53216323 </v>
   <v>        4.53216323      -4.53216323      -3.32594952 </v>
  </varray>
  <energy>
   <i name="e_fr_energy">          -94.16839247 </i>
   <i name="e_wo_entrp">          -94.16839247 </i>
   <i name="e_0_energy">          -94.16839247 </i>
  </energy>
 </calculation>
 <calculation>
  <scstep>
   <energy>
    <i name="e_fr_energy">          -94.17067437 </i>
    <i name="e_wo_entrp">          -94.17067437 </i>
    <i name="e_0_energy">          -94.17067437 </i>
   </energy>
  </scstep>
  <structure>
   <crystal>
    <varray name="basis">
     <v>        5.62024000       0.00000000       0.00000000 </v>
     <v>        0.00000000       5.62024000       0.00000000 </v>
     <v>        0.00000000       0.00000000      16.86072000 </v>
    </varray>
    <i name="volume">      532.58120922 </i>
    <varray name="rec_basis">
     <v>        0.17792834       0.00000000       0.00000000 </v>
     <v>        0.00000000       0.17792834       0.00000000 </v>
     <v>        0.00000000       0.00000000       0.05930945 </v>
    </varray>
   </crystal>
   <varray name="positions">
    <v>       -0.00190677       0.00325537      -0.00046659 </v>
    <v>       -0.00243959       0.50243959      -0.00076964 </v>
    <v>        0.49790631       0.00209369      -0.00037406 </v>
    <v>        0.49674463       0.50190677      -0.00046659 </v>
    <v>        0.24605256       0.25394744       0.11463137 </v>
    <v>        0.74578225       0.25455496       0.11573272 </v>
    <v>        0.24544504       0.75421775       0.11573272 </v>
    <v>        0.74696563       0.75303437       0.11475197 </v>
    <v>       -0.00810614       0.00883304       0.23340296 </v>
    <v>       -0.00140349       0.50140349       0.23480794 </v>
    <v>        0.48845275       0.01154725       0.23359641 </v>
    <v>        0.49116696       0.50810614       0.23340296 </v>
    <v>        0.45192067       0.04807933       0.43676733 </v>
    <v>        0.72875483       0.26765959       0.34621626 </v>
    <v>        0.23234041       0.77124517       0.34621626 </v>
    <v>        0.74457613       0.75542387       0.35265726 </v>
    <v>        0.15063200       0.34936800       0.39275895 </v>
   </varray>
  </structure>
  <varray name="forces">
   <v>       -0.01848052       0.01137843       0.01216418 </v>
   <v>       -0.01715251       0.01715251       0.01155049 </v>
   <v>       -0.00967673       0.00967673       0.01364946 </v>
   <v>       -0.01137843       0.01848052       0.01216418 </v>
   <v>       -0.02011069       0.02011069      -0.00010761 </v>
   <v>       -0.02275857       0.02407123       0.01013935 </v>
   <v>       -0.02407123       0.02275857       0.01013935 </v>
   <v>       -0.01811502       0.01811502       0.03257381 </v>
   <v>       -0.03786098       0.04752102       0.00684109 </v>
   <v>       -0.02536147       0.02536147       0.03552878 </v>
   <v>       -0.04039843       0.04039843       0.02387304 </v>
   <v>       -0.04752102       0.03786098       0.00684109 </v>
   <v>        0.21890088      -0.21890088       0.19914630 </v>
   <v>       -0.10371397       0.08662305       0.04030281 </v>
   <v>       -0.08662305       0.10371397       0.04030281 </v>
   <v>       -0.02694522       0.02694522      -0.01262112 </v>
   <v>        0.29126695      -0.29126695      -0.44248799 </v>
  </varray>
  <varray name="stress">
   <v>      -23.20441130       8.77913543       4.54031330 </v>
   <v>        8.77913543     -23.20441130      -4.54031330 </v>
   <v>        4.54031330      -4.54031330      -2.03878011 </v>
  </varray>
  <energy>
   <i name="e_fr_energy">          -94.17067437 </i>
   <i name="e_wo_entrp">          -94.17067437 </i>
   <i name="e_0_energy">          -94.17067437 </i>
  </energy>
 </calculation>
 <calculation>
  <scstep>
   <energy>
    <i name="e_fr_energy">          -94.17121900 </i>
    <i name="e_wo_entrp">          -94.17121900 </i>
    <i name="e_0_energy">          -94.17121900 </i>
   </energy>
  </scstep>
  <structure>
   <crystal>
    <varray name="basis">
     <v>        5.62024000       0.00000000       0.00000000 </v>
     <v>        0.00000000       5.62024000       0.00000000 </v>
     <v>        0.00000000       0.00000000      16.86072000 </v>
    </varray>
    <i name="volume">      532.58120922 </i>
    <varray name="rec_basis">
     <v>        0.17792834       0.00000000       0.00000000 </v>
     <v>        0.00000000       0.17792834       0.00000000 </v>
     <v>        0.00000000       0.00000000       0.05930945 </v>
    </varray>
   </crystal>
   <varray name="positions">
    <v>       -0.00237843       0.00325358      -0.00038156 </v>
    <v>       -0.00283272       0.50283272      -0.00061770 </v>
    <v>        0.49782218       0.00217782      -0.00035981 </v>
    <v>        0.49674642       0.50237843      -0.00038156 </v>
    <v>        0.24598489       0.25401511       0.11448010 </v>
    <v>        0.74556510       0.25472219       0.11576133 </v>
    <v>        0.24527781       0.75443490       0.11576133 </v>
    <v>        0.74662549       0.75337451       0.11507186 </v>
    <v>       -0.00718967       0.00995759       0.23345755 </v>
    <v>       -0.00214601       0.50214601       0.23461408 </v>
    <v>        0.48898081       0.01101919       0.23363811 </v>
    <v>        0.49004241       0.50718967       0.23345755 </v>
    <v>        0.45216028       0.04783972       0.43649887 </v>
    <v>        0.72888270       0.26764907       0.34616374 </v>
    <v>        0.23235093       0.77111730       0.34616374 </v>
    <v>        0.74454625       0.75545375       0.35245190 </v>
    <v>        0.15097240       0.34902760       0.39281870 </v>
   </varray>
  </structure>
  <varray name="forces">
   <v>       -0.01639293       0.01283660       0.00916144 </v>
   <v>       -0.01405115       0.01405115       0.00605643 </v>
   <v>       -0.01209826       0.01209826       0.01299023 </v>
   <v>       -0.01283660       0.01639293       0.00916144 </v>
   <v>       -0.01752656       0.01752656       0.00422772 </v>
   <v>       -0.02466890       0.02208191       0.00828731 </v>
   <v>       -0.02208191       0.02466890       0.00828731 </v>
   <v>       -0.01926005       0.01926005       0.02094676 </v>
   <v>       -0.04643412       0.03751774       0.00788023 </v>
   <v>       -0.02250895       0.02250895       0.05520175 </v>
   <v>       -0.04550799       0.04550799       0.01348970 </v>
   <v>       -0.03751774       0.04643412       0.00788023 </v>
   <v>        0.22705326      -0.22705326       0.23898263 </v>
   <v>       -0.07548710       0.10961186       0.03541967 </v>
   <v>       -0.10961186       0.07548710       0.03541967 </v>
   <v>       -0.01501045       0.01501045      -0.01051912 </v>
   <v>        0.26394131      -0.26394131      -0.46287341 </v>
  </varray>
  <varray name="stress">
   <v>      -22.72622224       8.65752289       4.47887640 </v>
   <v>        8.65752289     -22.72622224      -4.47887640 </v>
   <v>        4.47887640      -4.47887640      -1.62896700 </v>
  </varray>
  <energy>
   <i name="e_fr_energy">          -94.17121900 </i>
   <i name="e_wo_entrp">          -94.17121900 </i>
   <i name="e_0_energy">          -94.17121900 </i>
  </energy>
 </calculation>
 <calculation>
  <scstep>
   <energy>
    <i name="e_fr_energy">          -94.17127463 </i>
    <i name="e_wo_entrp">          -94.17127463 </i>
    <i name="e_0_energy">          -94.17127463 </i>
   </energy>
  </scstep>
  <structure>
   <crystal>
    <varray name="basis">
     <v>        5.62024000       0.00000000       0.00000000 </v>
     <v>        0.00000000       5.62024000       0.00000000 </v>
     <v>        0.00000000       0.00000000      16.86072000 </v>
    </varray>
    <i name="volume">      532.58120922 </i>
    <varray name="rec_basis">
     <v>        0.17792834       0.00000000       0.00000000 </v>
     <v>        0.00000000       0.17792834       0.00000000 </v>
     <v>        0.00000000       0.00000000       0.05930945 </v>
    </varray>
   </crystal>
   <varray name="positions">
    <v>       -0.00238411       0.00325244      -0.00038204 </v>
    <v>       -0.00282874       0.50282874      -0.00062007 </v>
    <v>        0.49781362       0.00218638      -0.00035870 </v>
    <v>        0.49674756       0.50238411      -0.00038204 </v>
    <v>        0.24599359       0.25400641       0.11448012 </v>
    <v>        0.74555548       0.25471713       0.11576027 </v>
    <v>        0.24528287       0.75444452       0.11576027 </v>
    <v>        0.74661641       0.75338359       0.11506854 </v>
    <v>       -0.00718191       0.00996099       0.23346070 </v>
    <v>       -0.00216241       0.50216241       0.23463289 </v>
    <v>        0.48898775       0.01101225       0.23362519 </v>
    <v>        0.49003901       0.50718191       0.23346070 </v>
    <v>        0.45218587       0.04781413       0.43653712 </v>
    <v>        0.72898836       0.26772793       0.34615523 </v>
    <v>        0.23227207       0.77101164       0.34615523 </v>
    <v>        0.74458911       0.75541089       0.35244748 </v>
    <v>        0.15087229       0.34912771       0.39279738 </v>
   </varray>
  </structure>
  <varray name="forces">
   <v>       -0.01641912       0.01286271       0.00911628 </v>
   <v>       -0.01406346       0.01406346       0.00663841 </v>
   <v>       -0.01200297       0.01200297       0.01225555 </v>
   <v>       -0.01286271       0.01641912       0.00911628 </v>
   <v>       -0.01913997       0.01913997       0.00476859 </v>
   <v>       -0.02311048       0.02334402       0.00872480 </v>
   <v>       -0.02334402       0.02311048       0.00872480 </v>
   <v>       -0.01805247       0.01805247       0.02147857 </v>
   <v>       -0.04650275       0.03814234       0.00671446 </v>
   <v>       -0.02135678       0.02135678       0.04570661 </v>
   <v>       -0.04521665       0.04521665       0.01924678 </v>
   <v>       -0.03814234       0.04650275       0.00671446 </v>
   <v>        0.22216095      -0.22216095       0.22046588 </v>
   <v>       -0.09298316       0.09638977       0.03990685 </v>
   <v>       -0.09638977       0.09298316       0.03990685 </v>
   <v>       -0.02230205       0.02230205      -0.00799780 </v>
   <v>        0.27972775      -0.27972775      -0.45148735 </v>
  </varray>
  <varray name="stress">
   <v>      -22.74115040       8.68271860       4.48829512 </v>
   <v>        8.68271860     -22.74115040      -4.48829512 </v>
   <v>        4.48829512      -4.48829512      -1.66950800 </v>
  </varray>
  <energy>
   <i name="e_fr_energy">          -94.17127463 </i>
   <i name="e_wo_entrp">          -94.17127463 </i>
   <i name="e_0_energy">          -94.17127463 </i>
  </energy>
 </calculation>
 <calculation>
  <scstep>
   <energy>
    <i name="e_fr_energy">          -94.17112642 </i>
    <i name="e_wo_entrp">          -94.17112642 </i>
    <i name="e_0_energy">          -94.17112642 </i>
   </energy>
  </scstep>
  <structure>
   <crystal>
    <varray name="basis">
     <v>        5.62024000       0.00000000       0.00000000 </v>
     <v>        0.00000000       5.62024000       0.00000000 </v>
     <v>        0.00000000       0.00000000      16.86072000 </v>
    </varray>
    <i name="volume">      532.58120922 </i>
    <varray name="rec_basis">
     <v>        0.17792834       0.00000000       0.00000000 </v>
     <v>        0.00000000       0.17792834       0.00000000 </v>
     <v>        0.00000000       0.00000000       0.05930945 </v>
    </varray>
   </crystal>
   <varray name="positions">
    <v>       -0.00240921       0.00324796      -0.00038446 </v>
    <v>       -0.00281138       0.50281138      -0.00062732 </v>
    <v>        0.49777761       0.00222239      -0.00035783 </v>
    <v>        0.49675204       0.50240921      -0.00038446 </v>
    <v>        0.24600568       0.25399432       0.11448318 </v>
    <v>        0.74553815       0.25471529       0.11575795 </v>
    <v>        0.24528471       0.75446185       0.11575795 </v>
    <v>        0.74659597       0.75340403       0.11505675 </v>
    <v>       -0.00714977       0.00998608       0.23346821 </v>
    <v>       -0.00221562       0.50221562       0.23466460 </v>
    <v>        0.48902205       0.01097795       0.23359958 </v>
    <v>        0.49001392       0.50714977       0.23346821 </v>
    <v>        0.45222203       0.04777797       0.43660641 </v>
    <v>        0.72916915       0.26786205       0.34614219 </v>
    <v>        0.23213795       0.77083085       0.34614219 </v>
    <v>        0.74465958       0.75534042       0.35244162 </v>
    <v>        0.15069056       0.34930944       0.39276348 </v>
   </varray>
  </structure>
  <varray name="forces">
   <v>       -0.01636369       0.01291077       0.00912551 </v>
   <v>       -0.01418796       0.01418796       0.00778580 </v>
   <v>       -0.01174684       0.01174684       0.01103807 </v>
   <v>       -0.01291077       0.01636369       0.00912551 </v>
   <v>       -0.02193326       0.02193326       0.00551672 </v>
   <v>       -0.02042923       0.02548751       0.00947571 </v>
   <v>       -0.02548751       0.02042923       0.00947571 </v>
   <v>       -0.01595535       0.01595535       0.02272540 </v>
   <v>       -0.04687454       0.03908194       0.00462268 </v>
   <v>       -0.01923131       0.01923131       0.02931035 </v>
   <v>       -0.04482485       0.04482485       0.02934177 </v>
   <v>       -0.03908194       0.04687454       0.00462268 </v>
   <v>        0.21375180      -0.21375180       0.18837626 </v>
   <v>       -0.12342567       0.07348989       0.04741061 </v>
   <v>       -0.07348989       0.12342567       0.04741061 </v>
   <v>       -0.03488827       0.03488827      -0.00366981 </v>
   <v>        0.30707926      -0.30707926      -0.43169358 </v>
  </varray>
  <varray name="stress">
   <v>      -22.77307090       8.72497741       4.50356771 </v>
   <v>        8.72497741     -22.77307090      -4.50356771 </v>
   <v>        4.50356771      -4.50356771      -1.74809643 </v>
  </varray>
  <energy>
   <i name="e_fr_energy">          -94.17112642 </i>
   <i name="e_wo_entrp">          -94.17112642 </i>
   <i name="e_0_energy">          -94.17112642 </i>
  </energy>
 </calculation>
 <calculation>
  <scstep>
   <energy>
    <i name="e_fr_energy">          -94.17115899 </i>
    <i name="e_wo_entrp">          -94.17115899 </i>
    <i name="e_0_energy">          -94.17115899 </i>
   </energy>
  </scstep>
  <structure>
   <crystal>
    <varray name="basis">
     <v>        5.62024000       0.00000000       0.00000000 </v>
     <v>        0.00000000       5.62024000       0.00000000 </v>
     <v>        0.00000000       0.00000000      16.86072000 </v>
    </varray>
    <i name="volume">      532.58120922 </i>
    <varray name="rec_basis">
     <v>        0.17792834       0.00000000       0.00000000 </v>
     <v>        0.00000000       0.17792834       0.00000000 </v>
     <v>        0.00000000       0.00000000       0.05930945 </v>
    </varray>
   </crystal>
   <varray name="positions">
    <v>       -0.00241454       0.00324714      -0.00038506 </v>
    <v>       -0.00280772       0.50280772      -0.00062759 </v>
    <v>        0.49777032       0.00222968      -0.00035918 </v>
    <v>        0.49675286       0.50241454      -0.00038506 </v>
    <v>        0.24599815       0.25400185       0.11448486 </v>
    <v>        0.74554389       0.25472269       0.11575833 </v>
    <v>        0.24527731       0.75445611       0.11575833 </v>
    <v>        0.74659902       0.75340098       0.11505548 </v>
    <v>       -0.00714432       0.00999528       0.23346734 </v>
    <v>       -0.00221983       0.50221983       0.23465194 </v>
    <v>        0.48903080       0.01096920       0.23360622 </v>
    <v>        0.49000472       0.50714432       0.23346734 </v>
    <v>        0.45220127       0.04779873       0.43658361 </v>
    <v>        0.72909820       0.26780941       0.34614855 </v>
    <v>        0.23219059       0.77090180       0.34614855 </v>
    <v>        0.74462947       0.75537053       0.35244558 </v>
    <v>        0.15075150       0.34924850       0.39277899 </v>
   </varray>
  </structure>
  <varray name="forces">
   <v>       -0.01630129       0.01289149       0.00920372 </v>
   <v>       -0.01424758       0.01424758       0.00748564 </v>
   <v>       -0.01173981       0.01173981       0.01155033 </v>
   <v>       -0.01289149       0.01630129       0.00920372 </v>
   <v>       -0.02088263       0.02088263       0.00508958 </v>
   <v>       -0.02145400       0.02464329       0.00919413 </v>
   <v>       -0.02464329       0.02145400       0.00919413 </v>
   <v>       -0.01673833       0.01673833       0.02255013 </v>
   <v>       -0.04695401       0.03860426       0.00533154 </v>
   <v>       -0.01988769       0.01988769       0.03557219 </v>
   <v>       -0.04510848       0.04510848       0.02565051 </v>
   <v>       -0.03860426       0.04695401       0.00533154 </v>
   <v>        0.21687758      -0.21687758       0.20019235 </v>
   <v>       -0.11203454       0.08209003       0.04448295 </v>
   <v>       -0.08209003       0.11203454       0.04448295 </v>
   <v>       -0.03010025       0.03010025      -0.00532455 </v>
   <v>        0.29680011      -0.29680011      -0.43919085 </v>
  </varray>
  <varray name="stress">
   <v>      -22.76974034       8.70729534       4.49653478 </v>
   <v>        8.70729534     -22.76974034      -4.49653478 </v>
   <v>        4.49653478      -4.49653478      -1.72795828 </v>
  </varray>
  <energy>
   <i name="e_fr_energy">          -94.17115899 </i>
   <i name="e_wo_entrp">          -94.17115899 </i>
   <i name="e_0_energy">          -94.17115899 </i>
  </energy>
 </calculation>
 <calculation>
  <scstep>
   <energy>
    <i name="e_fr_energy">          -94.17109909 </i>
    <i name="e_wo_entrp">          -94.17109909 </i>
    <i name="e_0_energy">          -94.17109909 </i>
   </energy>
  </scstep>
  <structure>
   <crystal>
    <varray name="basis">
     <v>        5.62024000       0.00000000       0.00000000 </v>
     <v>        0.00000000       5.62024000       0.00000000 </v>
     <v>        0.00000000       0.00000000      16.86072000 </v>
    </varray>
    <i name="volume">      532.58120922 </i>
    <varray name="rec_basis">
     <v>        0.17792834       0.00000000       0.00000000 </v>
     <v>        0.00000000       0.17792834       0.00000000 </v>
     <v>        0.00000000       0.00000000       0.05930945 </v>
    </varray>
   </crystal>
   <varray name="positions">
    <v>       -0.00243614       0.00324315      -0.00038728 </v>
    <v>       -0.00279259       0.50279259      -0.00063037 </v>
    <v>        0.49773922       0.00226078      -0.00036240 </v>
    <v>        0.49675685       0.50243614      -0.00038728 </v>
    <v>        0.24598255       0.25401745       0.11448989 </v>
    <v>        0.74555265       0.25474087       0.11575843 </v>
    <v>        0.24525913       0.75444735       0.11575843 </v>
    <v>        0.74660004       0.75339996       0.11504894 </v>
    <v>       -0.00712191       0.01002679       0.23346729 </v>
    <v>       -0.00224803       0.50224803       0.23463026 </v>
    <v>        0.48906430       0.01093570       0.23361539 </v>
    <v>        0.48997321       0.50712191       0.23346729 </v>
    <v>        0.45215963       0.04784037       0.43654710 </v>
    <v>        0.72897344       0.26771782       0.34616050 </v>
    <v>        0.23228218       0.77102656       0.34616050 </v>
    <v>        0.74457566       0.75542434       0.35245397 </v>
    <v>        0.15084950       0.34915050       0.39280759 </v>
   </varray>
  </structure>
  <varray name="forces">
   <v>       -0.01616440       0.01285199       0.00939717 </v>
   <v>       -0.01445486       0.01445486       0.00707041 </v>
   <v>       -0.01159484       0.01159484       0.01246673 </v>
   <v>       -0.01285199       0.01616440       0.00939717 </v>
   <v>       -0.01909071       0.01909071       0.00433243 </v>
   <v>       -0.02321369       0.02318668       0.00874425 </v>
   <v>       -0.02318668       0.02321369       0.00874425 </v>
   <v>       -0.01806252       0.01806252       0.02243256 </v>
   <v>       -0.04719201       0.03771346       0.00647172 </v>
   <v>       -0.02084546       0.02084546       0.04622351 </v>
   <v>       -0.04577445       0.04577445       0.01936902 </v>
   <v>       -0.03771346       0.04719201       0.00647172 </v>
   <v>        0.22224221      -0.22224221       0.22031761 </v>
   <v>       -0.09259552       0.09679046       0.03936370 </v>
   <v>       -0.09679046       0.09259552       0.03936370 </v>
   <v>       -0.02191298       0.02191298      -0.00813782 </v>
   <v>        0.27920182      -0.27920182      -0.45202812 </v>
  </varray>
  <varray name="stress">
   <v>      -22.76988313       8.67586172       4.48350542 </v>
   <v>        8.67586172     -22.76988313      -4.48350542 </v>
   <v>        4.48350542      -4.48350542      -1.70020309 </v>
  </varray>
  <energy>
   <i name="e_fr_energy">          -94.17109909 </i>
   <i name="e_wo_entrp">          -94.17109909 </i>
   <i name="e_0_energy">          -94.17109909 </i>
  </energy>
 </calculation>
 <calculation>
  <scstep>
   <energy>
    <i name="e_fr_energy">          -94.17109642 </i>
    <i name="e_wo_entrp">          -94.17109642 </i>
    <i name="e_0_energy">          -94.17109642 </i>
   </energy>
  </scstep>
  <structure>
   <crystal>
    <varray name="basis">
     <v>        5.62024000       0.00000000       0.00000000 </v>
     <v>        0.00000000       5.62024000       0.00000000 </v>
     <v>        0.00000000       0.00000000      16.86072000 </v>
    </varray>
    <i name="volume">      532.58120922 </i>
    <varray name="rec_basis">
     <v>        0.17792834       0.00000000       0.00000000 </v>
     <v>        0.00000000       0.17792834       0.00000000 </v>
     <v>        0.00000000       0.00000000       0.05930945 </v>
    </varray>
   </crystal>
   <varray name="positions">
    <v>       -0.00244040       0.00324199      -0.00038762 </v>
    <v>       -0.00278961       0.50278961      -0.00063155 </v>
    <v>        0.49773264       0.00226736      -0.00036210 </v>
    <v>        0.49675801       0.50244040      -0.00038762 </v>
    <v>        0.24598562       0.25401438       0.11449016 </v>
    <v>        0.74554832       0.25473954       0.11575788 </v>
    <v>        0.24526046       0.75445168       0.11575788 </v>
    <v>        0.74659558       0.75340442       0.11504716 </v>
    <v>       -0.00711764       0.01003051       0.23346866 </v>
    <v>       -0.00225790       0.50225790       0.23463822 </v>
    <v>        0.48906967       0.01093033       0.23360988 </v>
    <v>        0.48996949       0.50711764       0.23346866 </v>
    <v>        0.45216932       0.04783068       0.43656313 </v>
    <v>        0.72901605       0.26775028       0.34615705 </v>
    <v>        0.23224972       0.77098395       0.34615705 </v>
    <v>        0.74459331       0.75540669       0.35245250 </v>
    <v>        0.15080729       0.34919271       0.39279894 </v>
   </varray>
  </structure>
  <varray name="forces">
   <v>       -0.01618145       0.01286619       0.00938520 </v>
   <v>       -0.01447620       0.01447620       0.00731790 </v>
   <v>       -0.01152324       0.01152324       0.01217158 </v>
   <v>       -0.01286619       0.01618145       0.00938520 </v>
   <v>       -0.01975668       0.01975668       0.00457071 </v>
   <v>       -0.02257121       0.02371173       0.00893411 </v>
   <v>       -0.02371173       0.02257121       0.00893411 </v>
   <v>       -0.01756041       0.01756041       0.02265141 </v>
   <v>       -0.04720604       0.03796344       0.00599099 </v>
   <v>       -0.02033784       0.02033784       0.04226850 </v>
   <v>       -0.04569933       0.04569933       0.02173127 </v>
   <v>       -0.03796344       0.04720604       0.00599099 </v>
   <v>        0.22023033      -0.22023033       0.21269541 </v>
   <v>       -0.09980366       0.09134076       0.04120115 </v>
   <v>       -0.09134076       0.09980366       0.04120115 </v>
   <v>       -0.02493517       0.02493517      -0.00709328 </v>
   <v>        0.28570298      -0.28570298      -0.44733641 </v>
  </varray>
  <varray name="stress">
   <v>      -22.77660319       8.68621491       4.48723251 </v>
   <v>        8.68621491     -22.77660319      -4.48723251 </v>
   <v>        4.48723251      -4.48723251      -1.71751322 </v>
  </varray>
  <energy>
   <i name="e_fr_energy">          -94.17109642 </i>
   <i name="e_wo_entrp">          -94.17109642 </i>
   <i name="e_0_energy">          -94.17109642 </i>
  </energy>
 </calculation>
 <structure name="finalpos">
  <crystal>
   <varray name="basis">
    <v>        5.62024000       0.00000000       0.00000000 </v>
    <v>        0.00000000       5.62024000       0.00000000 </v>
    <v>        0.00000000       0.00000000      16.86072000 </v>
   </varray>
   <i name="volume">      532.58120922 </i>
   <varray name="rec_basis">
    <v>        0.17792834       0.00000000       0.00000000 </v>
    <v>        0.00000000       0.17792834       0.00000000 </v>
    <v>        0.00000000       0.00000000       0.05930945 </v>
   </varray>
  </crystal>
  <varray name="positions">
   <v>       -0.00244040       0.00324199      -0.00038762 </v>
   <v>       -0.00278961       0.50278961      -0.00063155 </v>
   <v>        0.49773264       0.00226736      -0.00036210 </v>
   <v>        0.49675801       0.50244040      -0.00038762 </v>
   <v>        0.24598562       0.25401438       0.11449016 </v>
   <v>        0.74554832       0.25473954       0.11575788 </v>
   <v>        0.24526046       0.75445168       0.11575788 </v>
   <v>        0.74659558       0.75340442       0.11504716 </v>
   <v>       -0.00711764       0.01003051       0.23346866 </v>
   <v>       -0.00225790       0.50225790       0.23463822 </v>
   <v>        0.48906967       0.01093033       0.23360988 </v>
   <v>        0.48996949       0.50711764       0.23346866 </v>
   <v>        0.45216932       0.04783068       0.43656313 </v>
   <v>        0.72901605       0.26775028       0.34615705 </v>
   <v>        0.23224972       0.77098395       0.34615705 </v>
   <v>        0.74459331       0.75540669       0.35245250 </v>
   <v>        0.15080729       0.34919271       0.39279894 </v>
  </varray>
 </structure>
</modeling>