<?xml version='1.0' encoding='utf-8'?>
<modeling>
 <generator>
  <i name="program" type="string">vasp </i>
  <i name="version" type="string">mace-ase  </i>
  <i name="platform" type="string">mace-ase</i>
  <i name="date" type="string">2026 04 13</i>
  <i name="time" type="string">02:57:59</i>
 </generator>
 <incar>
  <i name="SYSTEM" type="string">Si</i>
  <i name="NSW" type="int">   100</i>
  <i name="EDIFFG">      -0.01000000</i>
  <i name="IBRION" type="int">   1</i>
  <i name="POTIM">      0.80000000</i>
  <i name="ISIF" type="int">   2</i>
  <i name="IMAGES" type="int">   4</i>
  <i name="SPRING" type="int">   -5</i>
  <i name="LCLIMB" type="logical"> T  </i>
 </incar>
 <parameters>
  <separator name="electronic">
   <i type="int" name="NELM">   60</i>
   <i type="logical" name="LCHIMAG"> F  </i>
   <i name="EDIFF">      0.00010000</i>
  </separator>
  <separator name="ionic">
   <i type="int" name="NSW">   100</i>
   <i type="int" name="IBRION">   1</i>
   <i type="int" name="ISIF">   2</i>
   <i name="EDIFFG">      -0.01000000</i>
   <i type="int" name="LORBIT">   0</i>
  </separator>
 </parameters>
 <atominfo>
  <atoms>     15 </atoms>
  <types>      1 </types>
  <array name="atoms">
   <dimension dim="1">ion</dimension>
   <field type="string">element</field>
   <field type="int">atomtype</field>
   <set>
    <rc>
     <c>Si</c>
     <c>   1</c>
    </rc>
    <rc>
     <c>Si</c>
     <c>   1</c>
    </rc>
    <rc>
     <c>Si</c>
     <c>   1</c>
    </rc>
    <rc>
     <c>Si</c>
     <c>   1</c>
    </rc>
    <rc>
     <c>Si</c>
     <c>   1</c>
    </rc>
    <rc>
     <c>Si</c>
     <c>   1</c>
    </rc>
    <rc>
     <c>Si</c>
     <c>   1</c>
    </rc>
    <rc>
     <c>Si</c>
     <c>   1</c>
    </rc>
    <rc>
     <c>Si</c>
     <c>   1</c>
    </rc>
    <rc>
     <c>Si</c>
     <c>   1</c>
    </rc>
    <rc>
     <c>Si</c>
     <c>   1</c>
    </rc>
    <rc>
     <c>Si</c>
     <c>   1</c>
    </rc>
    <rc>
     <c>Si</c>
     <c>   1</c>
    </rc>
    <rc>
     <c>Si</c>
     <c>   1</c>
    </rc>
    <rc>
     <c>Si</c>
     <c>   1</c>
    </rc>
   </set>
  </array>
  <array name="atomtypes">
   <dimension dim="1">type</dimension>
   <field type="int">atomspertype</field>
   <field type="string">element</field>
   <field>mass</field>
   <field>valence</field>
   <field type="string">pseudopotential</field>
   <set>
    <rc>
     <c>     15</c>
     <c>Si</c>
     <c>       28.08500000</c>
     <c>       0.00000000</c>
     <c>  PAW_PBE Si (MACE)                    </c>
    </rc>
   </set>
  </array>
 </atominfo>
 <structure name="initialpos">
  <crystal>
   <varray name="basis">
    <v>        5.47000000       5.47000000       0.00000000 </v>
    <v>        0.00000000       5.47000000       5.47000000 </v>
    <v>        5.47000000       0.00000000       5.47000000 </v>
   </varray>
   <i name="volume">      327.33464600 </i>
   <varray name="rec_basis">
    <v>        0.09140768       0.09140768      -0.09140768 </v>
    <v>       -0.09140768       0.09140768       0.09140768 </v>
    <v>        0.09140768      -0.09140768       0.09140768 </v>
   </varray>
  </crystal>
  <varray name="positions">
   <v>        0.00029071       0.00029071       0.00029071 </v>
   <v>        0.12622789       0.12622789       0.12622789 </v>
   <v>        0.00015524       0.00015524       0.50409104 </v>
   <v>        0.12842690       0.12842690       0.62295463 </v>
   <v>        0.00015524       0.50409104       0.00015524 </v>
   <v>        0.12842690       0.62295463       0.12842690 </v>
   <v>       -0.00865126       0.50545154       0.50545154 </v>
   <v>        0.14534832       0.62334237       0.62334237 </v>
   <v>        0.50409104       0.00015524       0.00015524 </v>
   <v>        0.62295463       0.12842690       0.12842690 </v>
   <v>        0.50545154      -0.00865126       0.50545154 </v>
   <v>        0.62334237       0.14534832       0.62334237 </v>
   <v>        0.50545154       0.50545154      -0.00865126 </v>
   <v>        0.62334237       0.62334237       0.14534832 </v>
   <v>        0.53688517       0.53688517       0.53688517 </v>
  </varray>
 </structure>
 <calculation>
  <scstep>
   <energy>
    <i name="e_fr_energy">          -78.01021732 </i>
    <i name="e_wo_entrp">          -78.01021732 </i>
    <i name="e_0_energy">          -78.01021732 </i>
   </energy>
  </scstep>
  <structure>
   <crystal>
    <varray name="basis">
     <v>        5.47000000       5.47000000       0.00000000 </v>
     <v>        0.00000000       5.47000000       5.47000000 </v>
     <v>        5.47000000       0.00000000       5.47000000 </v>
    </varray>
    <i name="volume">      327.33464600 </i>
    <varray name="rec_basis">
     <v>        0.09140768       0.09140768      -0.09140768 </v>
     <v>       -0.09140768       0.09140768       0.09140768 </v>
     <v>        0.09140768      -0.09140768       0.09140768 </v>
    </varray>
   </crystal>
   <varray name="positions">
    <v>        0.00029071       0.00029071       0.00029071 </v>
    <v>        0.12622789       0.12622789       0.12622789 </v>
    <v>        0.00015524       0.00015524       0.50409104 </v>
    <v>        0.12842690       0.12842690       0.62295463 </v>
    <v>        0.00015524       0.50409104       0.00015524 </v>
    <v>        0.12842690       0.62295463       0.12842690 </v>
    <v>       -0.00865126       0.50545154       0.50545154 </v>
    <v>        0.14534832       0.62334237       0.62334237 </v>
    <v>        0.50409104       0.00015524       0.00015524 </v>
    <v>        0.62295463       0.12842690       0.12842690 </v>
    <v>        0.50545154      -0.00865126       0.50545154 </v>
    <v>        0.62334237       0.14534832       0.62334237 </v>
    <v>        0.50545154       0.50545154      -0.00865126 </v>
    <v>        0.62334237       0.62334237       0.14534832 </v>
    <v>        0.53688517       0.53688517       0.53688517 </v>
   </varray>
  </structure>
  <varray name="forces">
   <v>       -0.00738264      -0.00738264      -0.00738264 </v>
   <v>        0.03992258       0.03992258       0.03992258 </v>
   <v>        0.04817606       0.01656354       0.04817606 </v>
   <v>        0.02012712       0.02361622       0.02012712 </v>
   <v>        0.01656354       0.04817606       0.04817606 </v>
   <v>        0.02361622       0.02012712       0.02012712 </v>
   <v>        0.11245259       0.11245259       0.09147531 </v>
   <v>        0.03111037       0.03111037       0.04952141 </v>
   <v>        0.04817606       0.04817606       0.01656354 </v>
   <v>        0.02012712       0.02012712       0.02361622 </v>
   <v>        0.09147531       0.11245259       0.11245259 </v>
   <v>        0.04952141       0.03111037       0.03111037 </v>
   <v>        0.11245259       0.09147531       0.11245259 </v>
   <v>        0.03111037       0.04952141       0.03111037 </v>
   <v>       -0.63744871      -0.63744871      -0.63744871 </v>
  </varray>
  <varray name="stress">
   <v>      -37.60121459      -6.89066945      -6.89066945 </v>
   <v>       -6.89066945     -37.60121459      -6.89066945 </v>
   <v>       -6.89066945      -6.89066945     -37.60121459 </v>
  </varray>
  <energy>
   <i name="e_fr_energy">          -78.01021732 </i>
   <i name="e_wo_entrp">          -78.01021732 </i>
   <i name="e_0_energy">          -78.01021732 </i>
  </energy>
 </calculation>
 <calculation>
  <scstep>
   <energy>
    <i name="e_fr_energy">          -78.01129947 </i>
    <i name="e_wo_entrp">          -78.01129947 </i>
    <i name="e_0_energy">          -78.01129947 </i>
   </energy>
  </scstep>
  <structure>
   <crystal>
    <varray name="basis">
     <v>        5.47000000       5.47000000       0.00000000 </v>
     <v>        0.00000000       5.47000000       5.47000000 </v>
     <v>        5.47000000       0.00000000       5.47000000 </v>
    </varray>
    <i name="volume">      327.33464600 </i>
    <varray name="rec_basis">
     <v>        0.09140768       0.09140768      -0.09140768 </v>
     <v>       -0.09140768       0.09140768       0.09140768 </v>
     <v>        0.09140768      -0.09140768       0.09140768 </v>
    </varray>
   </crystal>
   <varray name="positions">
    <v>        0.00017499       0.00017499       0.00017499 </v>
    <v>        0.12641170       0.12641170       0.12641170 </v>
    <v>        0.00007236       0.00007236       0.50448976 </v>
    <v>        0.12835575       0.12835575       0.62292726 </v>
    <v>        0.00007236       0.50448976       0.00007236 </v>
    <v>        0.12835575       0.62292726       0.12835575 </v>
    <v>       -0.00927640       0.50576664       0.50576664 </v>
    <v>        0.14530139       0.62343954       0.62343954 </v>
    <v>        0.50448976       0.00007236       0.00007236 </v>
    <v>        0.62292726       0.12835575       0.12835575 </v>
    <v>        0.50576664      -0.00927640       0.50576664 </v>
    <v>        0.62343954       0.14530139       0.62343954 </v>
    <v>        0.50576664       0.50576664      -0.00927640 </v>
    <v>        0.62343954       0.62343954       0.14530139 </v>
    <v>        0.53684454       0.53684454       0.53684454 </v>
   </varray>
  </structure>
  <varray name="forces">
   <v>        0.01426614       0.01426614       0.01426614 </v>
   <v>        0.02053315       0.02053315       0.02053315 </v>
   <v>        0.03302683       0.02592875       0.03302683 </v>
   <v>        0.03182419       0.04052214       0.03182419 </v>
   <v>        0.02592875       0.03302683       0.03302683 </v>
   <v>        0.04052214       0.03182419       0.03182419 </v>
   <v>        0.11758040       0.11758040       0.06932328 </v>
   <v>        0.02822642       0.02822642       0.04438819 </v>
   <v>        0.03302683       0.03302683       0.02592875 </v>
   <v>        0.03182419       0.03182419       0.04052214 </v>
   <v>        0.06932328       0.11758040       0.11758040 </v>
   <v>        0.04438819       0.02822642       0.02822642 </v>
   <v>        0.11758040       0.06932328       0.11758040 </v>
   <v>        0.02822642       0.04438819       0.02822642 </v>
   <v>       -0.63627730      -0.63627730      -0.63627730 </v>
  </varray>
  <varray name="stress">
   <v>      -37.82338035      -6.75460524      -6.75460524 </v>
   <v>       -6.75460524     -37.82338035      -6.75460524 </v>
   <v>       -6.75460524      -6.75460524     -37.82338035 </v>
  </varray>
  <energy>
   <i name="e_fr_energy">          -78.01129947 </i>
   <i name="e_wo_entrp">          -78.01129947 </i>
   <i name="e_0_energy">          -78.01129947 </i>
  </energy>
 </calculation>
 <calculation>
  <scstep>
   <energy>
    <i name="e_fr_energy">          -78.01188704 </i>
    <i name="e_wo_entrp">          -78.01188704 </i>
    <i name="e_0_energy">          -78.01188704 </i>
   </energy>
  </scstep>
  <structure>
   <crystal>
    <varray name="basis">
     <v>        5.47000000       5.47000000       0.00000000 </v>
     <v>        0.00000000       5.47000000       5.47000000 </v>
     <v>        5.47000000       0.00000000       5.47000000 </v>
    </varray>
    <i name="volume">      327.33464600 </i>
    <varray name="rec_basis">
     <v>        0.09140768       0.09140768      -0.09140768 </v>
     <v>       -0.09140768       0.09140768       0.09140768 </v>
     <v>        0.09140768      -0.09140768       0.09140768 </v>
    </varray>
   </crystal>
   <varray name="positions">
    <v>        0.00019946       0.00019946       0.00019946 </v>
    <v>        0.12656607       0.12656607       0.12656607 </v>
    <v>        0.00004731       0.00004731       0.50478108 </v>
    <v>        0.12843209       0.12843209       0.62293274 </v>
    <v>        0.00004731       0.50478108       0.00004731 </v>
    <v>        0.12843209       0.62293274       0.12843209 </v>
    <v>       -0.00998350       0.50613006       0.50613006 </v>
    <v>        0.14505869       0.62353027       0.62353027 </v>
    <v>        0.50478108       0.00004731       0.00004731 </v>
    <v>        0.62293274       0.12843209       0.12843209 </v>
    <v>        0.50613006      -0.00998350       0.50613006 </v>
    <v>        0.62353027       0.14505869       0.62353027 </v>
    <v>        0.50613006       0.50613006      -0.00998350 </v>
    <v>        0.62353027       0.62353027       0.14505869 </v>
    <v>        0.53680916       0.53680916       0.53680916 </v>
   </varray>
  </structure>
  <varray name="forces">
   <v>        0.02206444       0.02206444       0.02206444 </v>
   <v>        0.01147121       0.01147121       0.01147121 </v>
   <v>        0.02594083       0.03465316       0.02594083 </v>
   <v>        0.03733547       0.04326243       0.03733547 </v>
   <v>        0.03465316       0.02594083       0.02594083 </v>
   <v>        0.04326243       0.03733547       0.03733547 </v>
   <v>        0.12207725       0.12207725       0.04762542 </v>
   <v>        0.03363207       0.03363207       0.04241456 </v>
   <v>        0.02594083       0.02594083       0.03465316 </v>
   <v>        0.03733547       0.03733547       0.04326243 </v>
   <v>        0.04762542       0.12207725       0.12207725 </v>
   <v>        0.04241456       0.03363207       0.03363207 </v>
   <v>        0.12207725       0.04762542       0.12207725 </v>
   <v>        0.03363207       0.04241456       0.03363207 </v>
   <v>       -0.63946244      -0.63946244      -0.63946244 </v>
  </varray>
  <varray name="stress">
   <v>      -38.08460193      -6.64953818      -6.64953818 </v>
   <v>       -6.64953818     -38.08460193      -6.64953818 </v>
   <v>       -6.64953818      -6.64953818     -38.08460193 </v>
  </varray>
  <energy>
   <i name="e_fr_energy">          -78.01188704 </i>
   <i name="e_wo_entrp">          -78.01188704 </i>
   <i name="e_0_energy">          -78.01188704 </i>
  </energy>
 </calculation>
 <calculation>
  <scstep>
   <energy>
    <i name="e_fr_energy">          -78.01215084 </i>
    <i name="e_wo_entrp">          -78.01215084 </i>
    <i name="e_0_energy">          -78.01215084 </i>
   </energy>
  </scstep>
  <structure>
   <crystal>
    <varray name="basis">
     <v>        5.47000000       5.47000000       0.00000000 </v>
     <v>        0.00000000       5.47000000       5.47000000 </v>
     <v>        5.47000000       0.00000000       5.47000000 </v>
    </varray>
    <i name="volume">      327.33464600 </i>
    <varray name="rec_basis">
     <v>        0.09140768       0.09140768      -0.09140768 </v>
     <v>       -0.09140768       0.09140768       0.09140768 </v>
     <v>        0.09140768      -0.09140768       0.09140768 </v>
    </varray>
   </crystal>
   <varray name="positions">
    <v>        0.00023469       0.00023469       0.00023469 </v>
    <v>        0.12656598       0.12656598       0.12656598 </v>
    <v>        0.00006840       0.00006840       0.50474687 </v>
    <v>        0.12846941       0.12846941       0.62296627 </v>
    <v>        0.00006840       0.50474687       0.00006840 </v>
    <v>        0.12846941       0.62296627       0.12846941 </v>
    <v>       -0.00993237       0.50610734       0.50610734 </v>
    <v>        0.14499434       0.62353713       0.62353713 </v>
    <v>        0.50474687       0.00006840       0.00006840 </v>
    <v>        0.62296627       0.12846941       0.12846941 </v>
    <v>        0.50610734      -0.00993237       0.50610734 </v>
    <v>        0.62353713       0.14499434       0.62353713 </v>
    <v>        0.50610734       0.50610734      -0.00993237 </v>
    <v>        0.62353713       0.62353713       0.14499434 </v>
    <v>        0.53680568       0.53680568       0.53680568 </v>
   </varray>
  </structure>
  <varray name="forces">
   <v>        0.01988843       0.01988843       0.01988843 </v>
   <v>        0.01318244       0.01318244       0.01318244 </v>
   <v>        0.02889374       0.03438509       0.02889374 </v>
   <v>        0.03414732       0.03917667       0.03414732 </v>
   <v>        0.03438509       0.02889374       0.02889374 </v>
   <v>        0.03917667       0.03414732       0.03414732 </v>
   <v>        0.12147927       0.12147927       0.05051677 </v>
   <v>        0.03601854       0.03601854       0.04227230 </v>
   <v>        0.02889374       0.02889374       0.03438509 </v>
   <v>        0.03414732       0.03414732       0.03917667 </v>
   <v>        0.05051677       0.12147927       0.12147927 </v>
   <v>        0.04227230       0.03601854       0.03601854 </v>
   <v>        0.12147927       0.05051677       0.12147927 </v>
   <v>        0.03601854       0.04227230       0.03601854 </v>
   <v>       -0.64049943      -0.64049943      -0.64049943 </v>
  </varray>
  <varray name="stress">
   <v>      -38.05866757      -6.68555775      -6.68555775 </v>
   <v>       -6.68555775     -38.05866757      -6.68555775 </v>
   <v>       -6.68555775      -6.68555775     -38.05866757 </v>
  </varray>
  <energy>
   <i name="e_fr_energy">          -78.01215084 </i>
   <i name="e_wo_entrp">          -78.01215084 </i>
   <i name="e_0_energy">          -78.01215084 </i>
  </energy>
 </calculation>
 <structure name="finalpos">
  <crystal>
   <varray name="basis">
    <v>        5.47000000       5.47000000       0.00000000 </v>
    <v>        0.00000000       5.47000000       5.47000000 </v>
    <v>        5.47000000       0.00000000       5.47000000 </v>
   </varray>
   <i name="volume">      327.33464600 </i>
   <varray name="rec_basis">
    <v>        0.09140768       0.09140768      -0.09140768 </v>
    <v>       -0.09140768       0.09140768       0.09140768 </v>
    <v>        0.09140768      -0.09140768       0.09140768 </v>
   </varray>
  </crystal>
  <varray name="positions">
   <v>        0.00023469       0.00023469       0.00023469 </v>
   <v>        0.12656598       0.12656598       0.12656598 </v>
   <v>        0.00006840       0.00006840       0.50474687 </v>
   <v>        0.12846941       0.12846941       0.62296627 </v>
   <v>        0.00006840       0.50474687       0.00006840 </v>
   <v>        0.12846941       0.62296627       0.12846941 </v>
   <v>       -0.00993237       0.50610734       0.50610734 </v>
   <v>        0.14499434       0.62353713       0.62353713 </v>
   <v>        0.50474687       0.00006840       0.00006840 </v>
   <v>        0.62296627       0.12846941       0.12846941 </v>
   <v>        0.50610734      -0.00993237       0.50610734 </v>
   <v>        0.62353713       0.14499434       0.62353713 </v>
   <v>        0.50610734       0.50610734      -0.00993237 </v>
   <v>        0.62353713       0.62353713       0.14499434 </v>
   <v>        0.53680568       0.53680568       0.53680568 </v>
  </varray>
 </structure>
</modeling>