<?xml version='1.0' encoding='utf-8'?>
<modeling>
 <generator>
  <i name="program" type="string">vasp </i>
  <i name="version" type="string">mace-ase  </i>
  <i name="platform" type="string">mace-ase</i>
  <i name="date" type="string">2026 04 13</i>
  <i name="time" type="string">02:57:59</i>
 </generator>
 <incar>
  <i name="SYSTEM" type="string">Si</i>
  <i name="NSW" type="int">   100</i>
  <i name="EDIFFG">      -0.01000000</i>
  <i name="IBRION" type="int">   1</i>
  <i name="POTIM">      0.80000000</i>
  <i name="ISIF" type="int">   2</i>
  <i name="IMAGES" type="int">   4</i>
  <i name="SPRING" type="int">   -5</i>
  <i name="LCLIMB" type="logical"> T  </i>
 </incar>
 <parameters>
  <separator name="electronic">
   <i type="int" name="NELM">   60</i>
   <i type="logical" name="LCHIMAG"> F  </i>
   <i name="EDIFF">      0.00010000</i>
  </separator>
  <separator name="ionic">
   <i type="int" name="NSW">   100</i>
   <i type="int" name="IBRION">   1</i>
   <i type="int" name="ISIF">   2</i>
   <i name="EDIFFG">      -0.01000000</i>
   <i type="int" name="LORBIT">   0</i>
  </separator>
 </parameters>
 <atominfo>
  <atoms>     15 </atoms>
  <types>      1 </types>
  <array name="atoms">
   <dimension dim="1">ion</dimension>
   <field type="string">element</field>
   <field type="int">atomtype</field>
   <set>
    <rc>
     <c>Si</c>
     <c>   1</c>
    </rc>
    <rc>
     <c>Si</c>
     <c>   1</c>
    </rc>
    <rc>
     <c>Si</c>
     <c>   1</c>
    </rc>
    <rc>
     <c>Si</c>
     <c>   1</c>
    </rc>
    <rc>
     <c>Si</c>
     <c>   1</c>
    </rc>
    <rc>
     <c>Si</c>
     <c>   1</c>
    </rc>
    <rc>
     <c>Si</c>
     <c>   1</c>
    </rc>
    <rc>
     <c>Si</c>
     <c>   1</c>
    </rc>
    <rc>
     <c>Si</c>
     <c>   1</c>
    </rc>
    <rc>
     <c>Si</c>
     <c>   1</c>
    </rc>
    <rc>
     <c>Si</c>
     <c>   1</c>
    </rc>
    <rc>
     <c>Si</c>
     <c>   1</c>
    </rc>
    <rc>
     <c>Si</c>
     <c>   1</c>
    </rc>
    <rc>
     <c>Si</c>
     <c>   1</c>
    </rc>
    <rc>
     <c>Si</c>
     <c>   1</c>
    </rc>
   </set>
  </array>
  <array name="atomtypes">
   <dimension dim="1">type</dimension>
   <field type="int">atomspertype</field>
   <field type="string">element</field>
   <field>mass</field>
   <field>valence</field>
   <field type="string">pseudopotential</field>
   <set>
    <rc>
     <c>     15</c>
     <c>Si</c>
     <c>       28.08500000</c>
     <c>       0.00000000</c>
     <c>  PAW_PBE Si (MACE)                    </c>
    </rc>
   </set>
  </array>
 </atominfo>
 <structure name="initialpos">
  <crystal>
   <varray name="basis">
    <v>        5.47000000       5.47000000       0.00000000 </v>
    <v>        0.00000000       5.47000000       5.47000000 </v>
    <v>        5.47000000       0.00000000       5.47000000 </v>
   </varray>
   <i name="volume">      327.33464600 </i>
   <varray name="rec_basis">
    <v>        0.09140768       0.09140768      -0.09140768 </v>
    <v>       -0.09140768       0.09140768       0.09140768 </v>
    <v>        0.09140768      -0.09140768       0.09140768 </v>
   </varray>
  </crystal>
  <varray name="positions">
   <v>       -0.00105091      -0.00105091      -0.00105091 </v>
   <v>        0.12482102       0.12482102       0.12482102 </v>
   <v>       -0.00354291      -0.00354291       0.50183418 </v>
   <v>        0.12473784       0.12473784       0.62113088 </v>
   <v>       -0.00354291       0.50183418      -0.00354291 </v>
   <v>        0.12473784       0.62113088       0.12473784 </v>
   <v>       -0.01665220       0.50158152       0.50158152 </v>
   <v>        0.13186945       0.61946808       0.61946808 </v>
   <v>        0.50183418      -0.00354291      -0.00354291 </v>
   <v>        0.62113088       0.12473784       0.12473784 </v>
   <v>        0.50158152      -0.01665220       0.50158152 </v>
   <v>        0.61946808       0.13186945       0.61946808 </v>
   <v>        0.50158152       0.50158152      -0.01665220 </v>
   <v>        0.61946808       0.61946808       0.13186945 </v>
   <v>        0.59867267       0.59867267       0.59867267 </v>
  </varray>
 </structure>
 <calculation>
  <scstep>
   <energy>
    <i name="e_fr_energy">          -78.20138651 </i>
    <i name="e_wo_entrp">          -78.20138651 </i>
    <i name="e_0_energy">          -78.20138651 </i>
   </energy>
  </scstep>
  <structure>
   <crystal>
    <varray name="basis">
     <v>        5.47000000       5.47000000       0.00000000 </v>
     <v>        0.00000000       5.47000000       5.47000000 </v>
     <v>        5.47000000       0.00000000       5.47000000 </v>
    </varray>
    <i name="volume">      327.33464600 </i>
    <varray name="rec_basis">
     <v>        0.09140768       0.09140768      -0.09140768 </v>
     <v>       -0.09140768       0.09140768       0.09140768 </v>
     <v>        0.09140768      -0.09140768       0.09140768 </v>
    </varray>
   </crystal>
   <varray name="positions">
    <v>       -0.00105091      -0.00105091      -0.00105091 </v>
    <v>        0.12482102       0.12482102       0.12482102 </v>
    <v>       -0.00354291      -0.00354291       0.50183418 </v>
    <v>        0.12473784       0.12473784       0.62113088 </v>
    <v>       -0.00354291       0.50183418      -0.00354291 </v>
    <v>        0.12473784       0.62113088       0.12473784 </v>
    <v>       -0.01665220       0.50158152       0.50158152 </v>
    <v>        0.13186945       0.61946808       0.61946808 </v>
    <v>        0.50183418      -0.00354291      -0.00354291 </v>
    <v>        0.62113088       0.12473784       0.12473784 </v>
    <v>        0.50158152      -0.01665220       0.50158152 </v>
    <v>        0.61946808       0.13186945       0.61946808 </v>
    <v>        0.50158152       0.50158152      -0.01665220 </v>
    <v>        0.61946808       0.61946808       0.13186945 </v>
    <v>        0.59867267       0.59867267       0.59867267 </v>
   </varray>
  </structure>
  <varray name="forces">
   <v>       -0.03742229      -0.03742229      -0.03742229 </v>
   <v>        0.00901513       0.00901513       0.00901513 </v>
   <v>       -0.02419866      -0.03407959      -0.02419866 </v>
   <v>       -0.05617664      -0.00973208      -0.05617664 </v>
   <v>       -0.03407959      -0.02419866      -0.02419866 </v>
   <v>       -0.00973208      -0.05617664      -0.05617664 </v>
   <v>        0.01313366       0.01313366      -0.04537701 </v>
   <v>       -0.03402420      -0.03402420      -0.09923684 </v>
   <v>       -0.02419866      -0.02419866      -0.03407959 </v>
   <v>       -0.05617664      -0.05617664      -0.00973208 </v>
   <v>       -0.04537701       0.01313366       0.01313366 </v>
   <v>       -0.09923684      -0.03402420      -0.03402420 </v>
   <v>        0.01313366      -0.04537701       0.01313366 </v>
   <v>       -0.03402420      -0.09923684      -0.03402420 </v>
   <v>        0.41936436       0.41936436       0.41936436 </v>
  </varray>
  <varray name="stress">
   <v>      -31.03209607      -4.08008408      -4.08008408 </v>
   <v>       -4.08008408     -31.03209607      -4.08008408 </v>
   <v>       -4.08008408      -4.08008408     -31.03209607 </v>
  </varray>
  <energy>
   <i name="e_fr_energy">          -78.20138651 </i>
   <i name="e_wo_entrp">          -78.20138651 </i>
   <i name="e_0_energy">          -78.20138651 </i>
  </energy>
 </calculation>
 <calculation>
  <scstep>
   <energy>
    <i name="e_fr_energy">          -78.20336986 </i>
    <i name="e_wo_entrp">          -78.20336986 </i>
    <i name="e_0_energy">          -78.20336986 </i>
   </energy>
  </scstep>
  <structure>
   <crystal>
    <varray name="basis">
     <v>        5.47000000       5.47000000       0.00000000 </v>
     <v>        0.00000000       5.47000000       5.47000000 </v>
     <v>        5.47000000       0.00000000       5.47000000 </v>
    </varray>
    <i name="volume">      327.33464600 </i>
    <varray name="rec_basis">
     <v>        0.09140768       0.09140768      -0.09140768 </v>
     <v>       -0.09140768       0.09140768       0.09140768 </v>
     <v>        0.09140768      -0.09140768       0.09140768 </v>
    </varray>
   </crystal>
   <varray name="positions">
    <v>       -0.00118733      -0.00118733      -0.00118733 </v>
    <v>        0.12497769       0.12497769       0.12497769 </v>
    <v>       -0.00353714      -0.00353714       0.50192477 </v>
    <v>        0.12487777       0.12487777       0.62060280 </v>
    <v>       -0.00353714       0.50192477      -0.00353714 </v>
    <v>        0.12487777       0.62060280       0.12487777 </v>
    <v>       -0.01682478       0.50150259       0.50150259 </v>
    <v>        0.13282268       0.61907886       0.61907886 </v>
    <v>        0.50192477      -0.00353714      -0.00353714 </v>
    <v>        0.62060280       0.12487777       0.12487777 </v>
    <v>        0.50150259      -0.01682478       0.50150259 </v>
    <v>        0.61907886       0.13282268       0.61907886 </v>
    <v>        0.50150259       0.50150259      -0.01682478 </v>
    <v>        0.61907886       0.61907886       0.13282268 </v>
    <v>        0.59875771       0.59875771       0.59875771 </v>
   </varray>
  </structure>
  <varray name="forces">
   <v>       -0.02239517      -0.02239517      -0.02239517 </v>
   <v>       -0.01502219      -0.01502219      -0.01502219 </v>
   <v>       -0.03352389      -0.04365633      -0.03352389 </v>
   <v>       -0.03810693      -0.03022131      -0.03810693 </v>
   <v>       -0.04365633      -0.03352389      -0.03352389 </v>
   <v>       -0.03022131      -0.03810693      -0.03810693 </v>
   <v>        0.03138639       0.03138639      -0.03992470 </v>
   <v>       -0.05004048      -0.05004048      -0.08024394 </v>
   <v>       -0.03352389      -0.03352389      -0.04365633 </v>
   <v>       -0.03810693      -0.03810693      -0.03022131 </v>
   <v>       -0.03992470       0.03138639       0.03138639 </v>
   <v>       -0.08024394      -0.05004048      -0.05004048 </v>
   <v>        0.03138639      -0.03992470       0.03138639 </v>
   <v>       -0.05004048      -0.08024394      -0.05004048 </v>
   <v>        0.41203347       0.41203347       0.41203347 </v>
  </varray>
  <varray name="stress">
   <v>      -31.41291755      -4.02480547      -4.02480547 </v>
   <v>       -4.02480547     -31.41291755      -4.02480547 </v>
   <v>       -4.02480547      -4.02480547     -31.41291755 </v>
  </varray>
  <energy>
   <i name="e_fr_energy">          -78.20336986 </i>
   <i name="e_wo_entrp">          -78.20336986 </i>
   <i name="e_0_energy">          -78.20336986 </i>
  </energy>
 </calculation>
 <calculation>
  <scstep>
   <energy>
    <i name="e_fr_energy">          -78.20495454 </i>
    <i name="e_wo_entrp">          -78.20495454 </i>
    <i name="e_0_energy">          -78.20495454 </i>
   </energy>
  </scstep>
  <structure>
   <crystal>
    <varray name="basis">
     <v>        5.47000000       5.47000000       0.00000000 </v>
     <v>        0.00000000       5.47000000       5.47000000 </v>
     <v>        5.47000000       0.00000000       5.47000000 </v>
    </varray>
    <i name="volume">      327.33464600 </i>
    <varray name="rec_basis">
     <v>        0.09140768       0.09140768      -0.09140768 </v>
     <v>       -0.09140768       0.09140768       0.09140768 </v>
     <v>        0.09140768      -0.09140768       0.09140768 </v>
    </varray>
   </crystal>
   <varray name="positions">
    <v>       -0.00130173      -0.00130173      -0.00130173 </v>
    <v>        0.12501025       0.12501025       0.12501025 </v>
    <v>       -0.00362934      -0.00362934       0.50200347 </v>
    <v>        0.12489056       0.12489056       0.62023693 </v>
    <v>       -0.00362934       0.50200347      -0.00362934 </v>
    <v>        0.12489056       0.62023693       0.12489056 </v>
    <v>       -0.01666035       0.50139614       0.50139614 </v>
    <v>        0.13415901       0.61846016       0.61846016 </v>
    <v>        0.50200347      -0.00362934      -0.00362934 </v>
    <v>        0.62023693       0.12489056       0.12489056 </v>
    <v>        0.50139614      -0.01666035       0.50139614 </v>
    <v>        0.61846016       0.13415901       0.61846016 </v>
    <v>        0.50139614       0.50139614      -0.01666035 </v>
    <v>        0.61846016       0.61846016       0.13415901 </v>
    <v>        0.59882320       0.59882320       0.59882320 </v>
   </varray>
  </structure>
  <varray name="forces">
   <v>       -0.01610637      -0.01610637      -0.01610637 </v>
   <v>       -0.02419570      -0.02419570      -0.02419570 </v>
   <v>       -0.04447581      -0.05086766      -0.04447581 </v>
   <v>       -0.02441024      -0.03948023      -0.02441024 </v>
   <v>       -0.05086766      -0.04447581      -0.04447581 </v>
   <v>       -0.03948023      -0.02441024      -0.02441024 </v>
   <v>        0.03261560       0.03261560      -0.03959411 </v>
   <v>       -0.06350047      -0.06350047      -0.04523945 </v>
   <v>       -0.04447581      -0.04447581      -0.05086766 </v>
   <v>       -0.02441024      -0.02441024      -0.03948023 </v>
   <v>       -0.03959411       0.03261560       0.03261560 </v>
   <v>       -0.04523945      -0.06350047      -0.06350047 </v>
   <v>        0.03261560      -0.03959411       0.03261560 </v>
   <v>       -0.06350047      -0.04523945      -0.06350047 </v>
   <v>        0.41502537       0.41502537       0.41502537 </v>
  </varray>
  <varray name="stress">
   <v>      -31.96640151      -3.81525601      -3.81525601 </v>
   <v>       -3.81525601     -31.96640151      -3.81525601 </v>
   <v>       -3.81525601      -3.81525601     -31.96640151 </v>
  </varray>
  <energy>
   <i name="e_fr_energy">          -78.20495454 </i>
   <i name="e_wo_entrp">          -78.20495454 </i>
   <i name="e_0_energy">          -78.20495454 </i>
  </energy>
 </calculation>
 <calculation>
  <scstep>
   <energy>
    <i name="e_fr_energy">          -78.20544493 </i>
    <i name="e_wo_entrp">          -78.20544493 </i>
    <i name="e_0_energy">          -78.20544493 </i>
   </energy>
  </scstep>
  <structure>
   <crystal>
    <varray name="basis">
     <v>        5.47000000       5.47000000       0.00000000 </v>
     <v>        0.00000000       5.47000000       5.47000000 </v>
     <v>        5.47000000       0.00000000       5.47000000 </v>
    </varray>
    <i name="volume">      327.33464600 </i>
    <varray name="rec_basis">
     <v>        0.09140768       0.09140768      -0.09140768 </v>
     <v>       -0.09140768       0.09140768       0.09140768 </v>
     <v>        0.09140768      -0.09140768       0.09140768 </v>
    </varray>
   </crystal>
   <varray name="positions">
    <v>       -0.00130250      -0.00130250      -0.00130250 </v>
    <v>        0.12498466       0.12498466       0.12498466 </v>
    <v>       -0.00368711      -0.00368711       0.50196204 </v>
    <v>        0.12485909       0.12485909       0.62031267 </v>
    <v>       -0.00368711       0.50196204      -0.00368711 </v>
    <v>        0.12485909       0.62031267       0.12485909 </v>
    <v>       -0.01658025       0.50137108       0.50137108 </v>
    <v>        0.13417617       0.61846891       0.61846891 </v>
    <v>        0.50196204      -0.00368711      -0.00368711 </v>
    <v>        0.62031267       0.12485909       0.12485909 </v>
    <v>        0.50137108      -0.01658025       0.50137108 </v>
    <v>        0.61846891       0.13417617       0.61846891 </v>
    <v>        0.50137108       0.50137108      -0.01658025 </v>
    <v>        0.61846891       0.61846891       0.13417617 </v>
    <v>        0.59883947       0.59883947       0.59883947 </v>
   </varray>
  </structure>
  <varray name="forces">
   <v>       -0.01599978      -0.01599978      -0.01599978 </v>
   <v>       -0.02372447      -0.02372447      -0.02372447 </v>
   <v>       -0.03859846      -0.04440335      -0.03859846 </v>
   <v>       -0.03052528      -0.03995123      -0.03052528 </v>
   <v>       -0.04440335      -0.03859846      -0.03859846 </v>
   <v>       -0.03995123      -0.03052528      -0.03052528 </v>
   <v>        0.03127240       0.03127240      -0.03750170 </v>
   <v>       -0.06473051      -0.06473051      -0.04900455 </v>
   <v>       -0.03859846      -0.03859846      -0.04440335 </v>
   <v>       -0.03052528      -0.03052528      -0.03995123 </v>
   <v>       -0.03750170       0.03127240       0.03127240 </v>
   <v>       -0.04900455      -0.06473051      -0.06473051 </v>
   <v>        0.03127240      -0.03750170       0.03127240 </v>
   <v>       -0.06473051      -0.04900455      -0.06473051 </v>
   <v>        0.41574877       0.41574877       0.41574877 </v>
  </varray>
  <varray name="stress">
   <v>      -31.95860171      -3.89248602      -3.89248602 </v>
   <v>       -3.89248602     -31.95860171      -3.89248602 </v>
   <v>       -3.89248602      -3.89248602     -31.95860171 </v>
  </varray>
  <energy>
   <i name="e_fr_energy">          -78.20544493 </i>
   <i name="e_wo_entrp">          -78.20544493 </i>
   <i name="e_0_energy">          -78.20544493 </i>
  </energy>
 </calculation>
 <structure name="finalpos">
  <crystal>
   <varray name="basis">
    <v>        5.47000000       5.47000000       0.00000000 </v>
    <v>        0.00000000       5.47000000       5.47000000 </v>
    <v>        5.47000000       0.00000000       5.47000000 </v>
   </varray>
   <i name="volume">      327.33464600 </i>
   <varray name="rec_basis">
    <v>        0.09140768       0.09140768      -0.09140768 </v>
    <v>       -0.09140768       0.09140768       0.09140768 </v>
    <v>        0.09140768      -0.09140768       0.09140768 </v>
   </varray>
  </crystal>
  <varray name="positions">
   <v>       -0.00130250      -0.00130250      -0.00130250 </v>
   <v>        0.12498466       0.12498466       0.12498466 </v>
   <v>       -0.00368711      -0.00368711       0.50196204 </v>
   <v>        0.12485909       0.12485909       0.62031267 </v>
   <v>       -0.00368711       0.50196204      -0.00368711 </v>
   <v>        0.12485909       0.62031267       0.12485909 </v>
   <v>       -0.01658025       0.50137108       0.50137108 </v>
   <v>        0.13417617       0.61846891       0.61846891 </v>
   <v>        0.50196204      -0.00368711      -0.00368711 </v>
   <v>        0.62031267       0.12485909       0.12485909 </v>
   <v>        0.50137108      -0.01658025       0.50137108 </v>
   <v>        0.61846891       0.13417617       0.61846891 </v>
   <v>        0.50137108       0.50137108      -0.01658025 </v>
   <v>        0.61846891       0.61846891       0.13417617 </v>
   <v>        0.59883947       0.59883947       0.59883947 </v>
  </varray>
 </structure>
</modeling>