B2N2
   1.00000000
   2.505562478   0.000000001   0.000000000
  -1.252781238   2.170036869   0.000000000
   0.000000000   0.000000000   6.667082233
  B  N
  2  2
Direct configuration=     1
   0.333335512   0.666671027   0.250000000
   0.666664488   0.333328973   0.750000000
   0.666664455   0.333328906   0.250000000
   0.333335545   0.666671094   0.750000000
B2N2
   1.00000000
   2.520545168   0.000000004   0.000000000
  -1.260272581   2.182855346  -0.000000000
   0.000000000  -0.000000000   6.733952156
  B  N
  2  2
Direct configuration=     2
   0.333341914   0.666683803   0.250000000
   0.666658086   0.333316197   0.750000000
   0.666657780   0.333315585   0.250000000
   0.333342220   0.666684415   0.750000000
B2N2
   1.00000000
   2.522256850   0.000000002   0.000000000
  -1.261128423   2.184309419  -0.000000000
   0.000000000  -0.000000000   6.752892738
  B  N
  2  2
Direct configuration=     3
   0.333338062   0.666676108   0.250000000
   0.666661938   0.333323892   0.750000000
   0.666661614   0.333323242   0.250000000
   0.333338386   0.666676758   0.750000000
B2N2
   1.00000000
   2.529478246  -0.000000009   0.000000000
  -1.264739130   2.190363424  -0.000000000
   0.000000000  -0.000000000   6.910540936
  B  N
  2  2
Direct configuration=     4
   0.333309169   0.666618393   0.250000000
   0.666690831   0.333381607   0.750000000
   0.666690407   0.333380760   0.250000000
   0.333309593   0.666619240   0.750000000
B2N2
   1.00000000
   2.530778889  -0.000000017   0.000000000
  -1.265389459   2.191291093  -0.000000000
   0.000000000  -0.000000000   7.099587907
  B  N
  2  2
Direct configuration=     5
   0.333287909   0.666575922   0.250000000
   0.666712091   0.333424078   0.750000000
   0.666711548   0.333422991   0.250000000
   0.333288452   0.666577009   0.750000000
B2N2
   1.00000000
   2.524205371  -0.000000018   0.000000000
  -1.262102701   2.185470496  -0.000000000
   0.000000000  -0.000000000   7.275371581
  B  N
  2  2
Direct configuration=     6
   0.333287720   0.666575537   0.250000000
   0.666712280   0.333424463   0.750000000
   0.666711624   0.333423149   0.250000000
   0.333288376   0.666576851   0.750000000
B2N2
   1.00000000
   2.516035192  -0.000000010   0.000000000
  -1.258017605   2.178457967  -0.000000000
   0.000000000  -0.000000000   7.288831366
  B  N
  2  2
Direct configuration=     7
   0.333308236   0.666616515   0.250000000
   0.666691764   0.333383485   0.750000000
   0.666691158   0.333382271   0.250000000
   0.333308842   0.666617729   0.750000000
B2N2
   1.00000000
   2.512726748  -0.000000004   0.000000000
  -1.256363378   2.175678328  -0.000000000
   0.000000000  -0.000000000   7.264811300
  B  N
  2  2
Direct configuration=     8
   0.333322887   0.666645781   0.250000000
   0.666677113   0.333354219   0.750000000
   0.666676632   0.333353257   0.250000000
   0.333323368   0.666646743   0.750000000
