B2N2
   1.00000000
   2.504000000   0.000000000   0.000000000
  -1.252000000   2.168700000   0.000000000
   0.000000000   0.000000000   6.661200000
  B  N
  2  2
Direct configuration=     1
   0.333335492   0.666670987   0.250000000
   0.666664508   0.333329013   0.750000000
   0.666664497   0.333328993   0.250000000
   0.333335503   0.666671007   0.750000000
Direct configuration=     2
   0.333337764   0.666675517   0.250000000
   0.666662236   0.333324483   0.750000000
   0.666662184   0.333324379   0.250000000
   0.333337816   0.666675621   0.750000000
Direct configuration=     3
   0.333335698   0.666671389   0.250000000
   0.666664302   0.333328611   0.750000000
   0.666664247   0.333328500   0.250000000
   0.333335753   0.666671500   0.750000000
Direct configuration=     4
   0.333315201   0.666630445   0.250000000
   0.666684799   0.333369555   0.750000000
   0.666684700   0.333369357   0.250000000
   0.333315300   0.666630643   0.750000000
Direct configuration=     5
   0.333299879   0.666599834   0.250000000
   0.666700121   0.333400166   0.750000000
   0.666699945   0.333399815   0.250000000
   0.333300055   0.666600185   0.750000000
Direct configuration=     6
   0.333294381   0.666588836   0.250000000
   0.666705619   0.333411164   0.750000000
   0.666705275   0.333410475   0.250000000
   0.333294725   0.666589525   0.750000000
Direct configuration=     7
   0.333305854   0.666611740   0.250000000
   0.666694146   0.333388260   0.750000000
   0.666693638   0.333387243   0.250000000
   0.333306362   0.666612757   0.750000000
Direct configuration=     8
   0.333315627   0.666631260   0.250000000
   0.666684373   0.333368740   0.750000000
   0.666683792   0.333367579   0.250000000
   0.333316208   0.666632421   0.750000000
Direct configuration=     9
   0.333318829   0.666637659   0.250000000
   0.666681171   0.333362341   0.750000000
   0.666680574   0.333361148   0.250000000
   0.333319426   0.666638852   0.750000000
