CH6Cs63I192NPb64
   1.00000000
   25.160000000   0.000000000   0.000000000
   0.000000000   25.160000000   0.000000000
   0.000000000   0.000000000   25.160000000
  Cs  Pb  I  C  H  N
  63  64  192  1  6  1
Direct configuration=     5
   0.999913255   0.000074762   0.250017305
   0.000185824   0.000203732   0.499983912
   0.999845915   0.999842930   0.749700348
   0.000193180   0.249683275   0.999870791
   0.999925709   0.249982904   0.249932807
   0.999917207   0.249929261   0.500212423
   0.999910686   0.249888099   0.749982189
   0.000342251   0.500070556   0.999952337
   0.000273170   0.499751976   0.250193897
   0.000401154   0.499769761   0.500129493
   0.000102250   0.499970033   0.750272049
   0.999969099   0.750027737   0.000045733
   0.000064523   0.750225974   0.249993724
   0.999893146   0.749800384   0.500204806
   0.000058442   0.749824325   0.749755892
   0.250026252   0.000122889   0.000139463
   0.249929249   0.999917206   0.249879019
   0.250039991   0.999634399   0.500191468
   0.250133292   0.000036292   0.750042487
   0.250294884   0.250099615   0.999988450
   0.249972542   0.250362873   0.249947646
   0.250035595   0.250077278   0.500089579
   0.250046584   0.249992390   0.749859058
   0.250223964   0.500284695   0.999852167
   0.250206084   0.499954531   0.249872285
   0.250096127   0.500354149   0.500053085
   0.250382322   0.499735671   0.749721659
   0.250173697   0.749894867   0.000006019
   0.249915892   0.750018614   0.249959179
   0.250177973   0.749931844   0.499914885
   0.249843379   0.749988094   0.750139217
   0.499833117   0.999922727   0.999719441
   0.500231058   0.999948468   0.249649721
   0.500482646   0.999897490   0.500091396
   0.500004376   0.000018279   0.749837259
   0.499676766   0.249767128   0.999981434
   0.499994192   0.250139839   0.249888318
   0.499608841   0.250498724   0.499819445
   0.500082039   0.250155100   0.749755781
   0.500228424   0.499812492   0.999764069
   0.500017815   0.499993226   0.249909715
   0.499716876   0.499679461   0.500005764
   0.499865268   0.500223175   0.750225014
   0.500176956   0.750038661   0.000081631
   0.499848478   0.750159009   0.249942334
   0.499932476   0.749824426   0.499890418
   0.500161834   0.750081987   0.750171650
   0.749828083   0.999999388   0.999789141
   0.750021345   0.000104453   0.250135585
   0.749894197   0.000109334   0.499795900
   0.750013228   0.000043370   0.749867294
   0.750084682   0.249759593   0.000201453
   0.750238074   0.249679369   0.250186814
   0.750195258   0.250451836   0.500063496
   0.750093594   0.250343620   0.749955871
   0.749748003   0.499853492   0.999957092
   0.750112741   0.499759946   0.250072073
   0.750181759   0.499999608   0.500109099
   0.749900089   0.500030898   0.749987393
   0.749976886   0.750044097   0.000045112
   0.750054182   0.750044861   0.250011224
   0.750049220   0.749944595   0.500075086
   0.749900364   0.750119502   0.750046811
   0.125243693   0.125253836   0.125105263
   0.124602943   0.125095000   0.374903129
   0.125266413   0.125265105   0.624977627
   0.125074660   0.125209666   0.874774970
   0.124948286   0.374884222   0.124810072
   0.125001525   0.374848872   0.374917488
   0.125162873   0.375017573   0.625214603
   0.124979269   0.374873182   0.874814310
   0.124911817   0.625056756   0.125013297
   0.125026507   0.624866318   0.374890248
   0.125003180   0.624774675   0.625282815
   0.124889681   0.625049886   0.874905056
   0.125096507   0.875143113   0.125022482
   0.125122052   0.874804712   0.375120126
   0.124808369   0.875226307   0.624887705
   0.125073477   0.875041623   0.874832372
   0.374963595   0.124800769   0.125031781
   0.374884141   0.124849182   0.375021500
   0.374963997   0.124785393   0.625037603
   0.374816011   0.125043505   0.874888876
   0.375319921   0.375140232   0.124997387
   0.375006840   0.374823329   0.375198361
   0.375031557   0.374904764   0.625241496
   0.374801223   0.374956673   0.875070507
   0.375236264   0.624837355   0.125036391
   0.374924656   0.624908180   0.375088476
   0.374735696   0.625117289   0.625236612
   0.375009421   0.625141798   0.874798360
   0.375083738   0.875105620   0.124918693
   0.375182126   0.875024634   0.375010759
   0.374650343   0.875019025   0.624786674
   0.375143877   0.874989311   0.874957169
   0.625152617   0.125238850   0.125243998
   0.624994482   0.124997734   0.374762540
   0.624842868   0.125069097   0.624896603
   0.624976609   0.125199515   0.875055221
   0.624821792   0.374897680   0.125016275
   0.625166499   0.375208152   0.374911277
   0.625034029   0.375103143   0.624763316
   0.624948467   0.375227203   0.874984882
   0.624748002   0.624993571   0.124962379
   0.625241013   0.624912011   0.375067304
   0.625021186   0.625115637   0.625148129
   0.624985138   0.625037682   0.875189026
   0.624819656   0.875041476   0.124962345
   0.625236074   0.874982588   0.375123483
   0.625003035   0.874824967   0.624988147
   0.625277491   0.874856992   0.874923177
   0.875042553   0.125440440   0.125137593
   0.874963786   0.124967879   0.375009345
   0.875102998   0.125062003   0.625050569
   0.875053107   0.124943155   0.875084112
   0.875093690   0.374809176   0.125057564
   0.874950302   0.375194447   0.375046794
   0.874976037   0.375108687   0.625133064
   0.874846124   0.374944936   0.874863119
   0.874889017   0.625079802   0.124955099
   0.874860715   0.625013091   0.374959410
   0.874840759   0.624731705   0.624951555
   0.874767349   0.624964001   0.874928013
   0.875236009   0.875153402   0.125136637
   0.874994252   0.875049834   0.374853710
   0.875115609   0.874828567   0.625121247
   0.875100445   0.875011118   0.875240761
   0.124871385   0.125318416   0.000178400
   0.125339632   0.125041950   0.250018008
   0.125201193   0.125156086   0.499948638
   0.125053605   0.125149242   0.750225758
   0.125192241   0.374837828   0.000182638
   0.125027351   0.374751396   0.250197366
   0.124942338   0.374821118   0.499948591
   0.125109093   0.374933569   0.749906475
   0.125200364   0.624978888   0.999688761
   0.124951226   0.625168299   0.249887990
   0.125172853   0.624976699   0.500363407
   0.124929807   0.624968023   0.749897419
   0.125220931   0.875275535   0.999770951
   0.124705657   0.874839036   0.250076167
   0.124824033   0.875279752   0.500482365
   0.124681752   0.874752679   0.750047195
   0.375125250   0.124724225   0.999743078
   0.374851663   0.124759473   0.250027100
   0.375090944   0.124839792   0.500165097
   0.374916217   0.125148072   0.750049433
   0.374972546   0.375233439   0.999842579
   0.375097453   0.375239817   0.249910707
   0.375001370   0.375361764   0.499900931
   0.374970016   0.375154866   0.750314264
   0.375113608   0.624994089   0.000087238
   0.375581207   0.625046798   0.250075756
   0.374970643   0.624718997   0.500189072
   0.374951733   0.625114439   0.749810608
   0.374953549   0.875050521   0.999890219
   0.375083940   0.874746864   0.249974177
   0.375261678   0.874990089   0.500113089
   0.375133986   0.875024133   0.750138086
   0.625229092   0.125086008   0.999779174
   0.624772654   0.124956661   0.249801119
   0.624870477   0.125008184   0.499999278
   0.624851356   0.125112305   0.750082139
   0.625414949   0.375035065   0.000044062
   0.625279535   0.375121290   0.250054742
   0.624700105   0.374876756   0.500151271
   0.625187258   0.375067367   0.750084094
   0.624870290   0.625240149   0.999860643
   0.624855028   0.625041541   0.249798192
   0.624653792   0.625082570   0.500094208
   0.624811961   0.624997611   0.749978475
   0.625051869   0.874779634   0.999808305
   0.624928264   0.874787936   0.249928424
   0.625027522   0.874931462   0.500182598
   0.625141434   0.875203930   0.750004028
   0.875189360   0.124772320   0.000171916
   0.875058649   0.125092385   0.249972979
   0.874853429   0.125156215   0.500239004
   0.874914738   0.124623249   0.750256536
   0.874804564   0.375059612   0.999648773
   0.874787192   0.375227075   0.250088054
   0.874910115   0.374893425   0.500145532
   0.874939941   0.374986274   0.750223013
   0.875094541   0.625271390   0.000010828
   0.875069822   0.624980083   0.250002529
   0.875014857   0.624820334   0.499962872
   0.875052633   0.624820362   0.750196145
   0.874829274   0.874990163   0.999843291
   0.874857122   0.874995754   0.249763739
   0.875372627   0.875172405   0.500419882
   0.875137703   0.874934035   0.750078681
   0.124697886   0.999997475   0.124963751
   0.124806288   0.999945038   0.374850701
   0.124844418   0.999803819   0.624993352
   0.124481850   0.999967254   0.875131555
   0.124539035   0.249970625   0.125242803
   0.125118716   0.250328262   0.375227417
   0.124906898   0.249970472   0.625115363
   0.125216743   0.249993133   0.875071326
   0.125110104   0.499980785   0.124860523
   0.125004196   0.499804988   0.374918231
   0.125249594   0.500068380   0.624473425
   0.124986143   0.500169097   0.875268179
   0.125102689   0.749924308   0.125168443
   0.124799749   0.749879350   0.374977073
   0.124817448   0.749928792   0.625037467
   0.125318850   0.750273603   0.875004484
   0.375310695   0.000420265   0.125276266
   0.375100197   0.999975445   0.375161659
   0.375436619   0.999673188   0.625139450
   0.375055858   0.000032368   0.875070978
   0.375044502   0.250241261   0.125103103
   0.375094651   0.249791594   0.375135525
   0.375096578   0.250148380   0.624842443
   0.374884459   0.249932566   0.874836203
   0.374957261   0.500032377   0.124959310
   0.374442257   0.499929233   0.375243252
   0.374937266   0.500203080   0.625109596
   0.375323496   0.499840396   0.875319141
   0.374860746   0.749873360   0.125054832
   0.375172875   0.749976851   0.374962486
   0.374891555   0.749802256   0.625134956
   0.374813026   0.749714945   0.874832148
   0.624886147   0.000106915   0.125155129
   0.625004209   0.000100329   0.375314047
   0.625099613   0.999772635   0.625123504
   0.625103276   0.999866510   0.875061913
   0.624943476   0.249864101   0.124997684
   0.625150268   0.249977712   0.374927466
   0.624919695   0.249763420   0.625089807
   0.624788297   0.250100869   0.874869747
   0.624871082   0.500119707   0.124835354
   0.625049142   0.500171869   0.375090564
   0.625007314   0.500032940   0.625036337
   0.624906671   0.499980966   0.875140784
   0.625001943   0.750001702   0.124924641
   0.625023715   0.749895440   0.374934375
   0.625418422   0.750468742   0.625234517
   0.624921394   0.749675293   0.874989921
   0.875341593   0.999977826   0.125141987
   0.874852539   0.999861093   0.374814565
   0.874749611   0.000335642   0.624914800
   0.875313357   0.999950874   0.875361029
   0.875435100   0.249977676   0.125099918
   0.874917123   0.249886078   0.375020847
   0.874806054   0.250132467   0.624790207
   0.874996376   0.250295670   0.874931171
   0.875179950   0.500395678   0.125053222
   0.874964464   0.500060321   0.374858788
   0.875224490   0.500059278   0.625201463
   0.875267681   0.499860147   0.875045630
   0.874853007   0.749889262   0.124860104
   0.874945954   0.750246699   0.374706308
   0.875092473   0.749855500   0.624796032
   0.874790814   0.749985921   0.875157908
   0.000127712   0.125181553   0.125133543
   0.999739423   0.125041770   0.375137626
   0.000092852   0.125051961   0.625349409
   0.000039968   0.125140492   0.875095357
   0.999977773   0.374932939   0.125074388
   0.000301238   0.375068204   0.375313138
   0.000090000   0.374867815   0.625249053
   0.000104901   0.375069233   0.875087097
   0.000205995   0.625090475   0.124686498
   0.999826250   0.624914425   0.374943018
   0.999974242   0.624979348   0.624837407
   0.000251341   0.624918651   0.874759205
   0.000291231   0.875041215   0.124881593
   0.999820667   0.875015993   0.374585068
   0.000092499   0.875069996   0.624797822
   0.999961774   0.875247349   0.875349793
   0.249739013   0.125276372   0.124956048
   0.249922022   0.124877086   0.375117310
   0.249988676   0.125098737   0.624608158
   0.250074072   0.125210513   0.874927945
   0.249930030   0.375230954   0.124994004
   0.249909974   0.375026185   0.375179930
   0.250357374   0.374883885   0.625186658
   0.250093326   0.374992523   0.875029060
   0.249886547   0.625223445   0.124924123
   0.250009254   0.625096998   0.374834718
   0.249971158   0.625018534   0.624879514
   0.249770598   0.624781212   0.875129789
   0.250024809   0.874962102   0.125093138
   0.249932038   0.874824301   0.375018034
   0.249867787   0.875134780   0.624831248
   0.249744142   0.874973577   0.875295763
   0.499719068   0.125090907   0.125282992
   0.500042634   0.125106708   0.374963756
   0.499938857   0.125336315   0.624976779
   0.499654208   0.125186653   0.874797628
   0.500234533   0.375149627   0.124979587
   0.500045943   0.375197156   0.375313792
   0.500102788   0.374855768   0.625256270
   0.499969386   0.375202167   0.875177835
   0.500181867   0.624778757   0.124857929
   0.500080575   0.625086187   0.375077828
   0.500150520   0.625153529   0.625040239
   0.499930106   0.624992530   0.874970728
   0.500217856   0.875015164   0.124915899
   0.500051770   0.875096858   0.374707297
   0.500190845   0.874993841   0.625095430
   0.499762104   0.874800577   0.875204473
   0.749965229   0.124923694   0.125275632
   0.750227916   0.125342009   0.375152301
   0.750193197   0.125022710   0.625064500
   0.749965012   0.124867519   0.874954629
   0.749794782   0.375234648   0.124954375
   0.750200064   0.375089143   0.374873040
   0.750103434   0.375069854   0.624983564
   0.749924157   0.374805873   0.874568595
   0.750221181   0.625217004   0.125115810
   0.750086103   0.624954888   0.374632930
   0.749989908   0.624925548   0.625113893
   0.749779135   0.625044415   0.875110662
   0.749880748   0.875095396   0.125022320
   0.750015176   0.874906489   0.374980611
   0.750125525   0.875142410   0.624839307
   0.750008376   0.874982563   0.874802395
   0.020486672   0.018882922   0.079637288
   0.046549415   0.053583411   0.073605689
   0.977733556   0.020795322   0.072930657
   0.038400757   0.979507580   0.069028297
   0.057154349   0.021822847   0.004257389
   0.001946541   0.054835955   0.006626716
   0.000483802   0.985769156   0.006382571
   0.019682547   0.020724722   0.019460774
Direct configuration=     10
   0.999825881   0.000148957   0.250035883
   0.000371617   0.000407412   0.499967907
   0.999691711   0.999685766   0.749401689
   0.000386185   0.249366974   0.999741111
   0.999851375   0.249965672   0.249865420
   0.999834404   0.249858583   0.500424869
   0.999821316   0.249775965   0.749964537
   0.000684460   0.500141152   0.999904657
   0.000546314   0.499503997   0.250387770
   0.000802365   0.499539531   0.500258961
   0.000204433   0.499940097   0.750544167
   0.999938167   0.750056305   0.000091313
   0.000129027   0.750451999   0.249987270
   0.999786306   0.749600732   0.500409661
   0.000116910   0.749648976   0.749512086
   0.250052923   0.000245527   0.000278354
   0.249858313   0.999834377   0.249757904
   0.250079959   0.999268856   0.500382887
   0.250266360   0.000072534   0.750085192
   0.250589582   0.250199049   0.999976669
   0.249945469   0.250726131   0.249895673
   0.250071162   0.250154537   0.500179104
   0.250093266   0.249984833   0.749718098
   0.250447893   0.500569430   0.999704332
   0.250412159   0.499909012   0.249744552
   0.250192249   0.500708290   0.500106147
   0.250764660   0.499471353   0.749443368
   0.250347140   0.749789912   0.000011927
   0.249831944   0.750037082   0.249918442
   0.250355901   0.749863633   0.499829803
   0.249686699   0.749976244   0.750278463
   0.499666300   0.999845486   0.999438823
   0.500462129   0.999896942   0.249299457
   0.500965310   0.999795003   0.500182783
   0.500008805   0.000036543   0.749674520
   0.499353544   0.249534213   0.999962809
   0.499988348   0.250279617   0.249776660
   0.499217706   0.250997390   0.499638879
   0.500164144   0.250310165   0.749511595
   0.500456811   0.499624985   0.999528076
   0.500035628   0.499986504   0.249819468
   0.499433723   0.499358989   0.500011536
   0.499730546   0.500446345   0.750450023
   0.500353931   0.750077341   0.000163245
   0.499696972   0.750318000   0.249884736
   0.499864951   0.749648792   0.499780829
   0.500323659   0.750164008   0.750343264
   0.749657066   0.999998754   0.999578151
   0.750042787   0.000208838   0.250270921
   0.749788407   0.000218682   0.499591922
   0.750026776   0.000086775   0.749734856
   0.750169494   0.249519041   0.000402741
   0.750476015   0.249358920   0.250373829
   0.750390533   0.250903595   0.500127007
   0.750187153   0.250687197   0.749911762
   0.749496055   0.499706938   0.999914254
   0.750225516   0.499519915   0.250144059
   0.750363512   0.499999228   0.500218210
   0.749800156   0.500061771   0.749974801
   0.749954104   0.750088494   0.000090291
   0.750108302   0.750089658   0.250022427
   0.750098451   0.749889231   0.500150205
   0.749800785   0.750239080   0.750093654
   0.125489422   0.125509929   0.125211419
   0.124206219   0.125189992   0.374806709
   0.125532543   0.125529885   0.624955355
   0.125148506   0.125418259   0.874550013
   0.124896676   0.374769099   0.124620371
   0.125003119   0.374697938   0.374835128
   0.125325695   0.375035177   0.625428831
   0.124958576   0.374746523   0.874628832
   0.124823698   0.625113233   0.125026362
   0.125052863   0.624732561   0.374780750
   0.125006264   0.624549688   0.625565439
   0.124779459   0.625100060   0.874810134
   0.125192198   0.875285052   0.125043920
   0.125243950   0.874609504   0.375240441
   0.124616828   0.875452256   0.624775938
   0.125145911   0.875083959   0.874665424
   0.374927630   0.124601988   0.125063450
   0.374768325   0.124698369   0.375043061
   0.374928066   0.124570917   0.625075199
   0.374632088   0.125086993   0.874777756
   0.375639526   0.375280348   0.124994698
   0.375013582   0.374646729   0.375396486
   0.375063260   0.374809756   0.625482904
   0.374602674   0.374913333   0.875141057
   0.375472235   0.624674855   0.125072754
   0.374849513   0.624816389   0.375176985
   0.374471711   0.625234490   0.625472953
   0.375018683   0.625283328   0.874596948
   0.375167596   0.875211100   0.124837399
   0.375364179   0.875049247   0.375021481
   0.374301031   0.875037787   0.624573676
   0.375287323   0.874978590   0.874914255
   0.625304801   0.125477393   0.125487531
   0.624988972   0.124995567   0.374525353
   0.624686007   0.125137961   0.624793330
   0.624953270   0.125398893   0.875110322
   0.624643886   0.374795497   0.125032495
   0.625332891   0.375416121   0.374822639
   0.625068047   0.375206154   0.624526963
   0.624896888   0.375454177   0.874969769
   0.624496446   0.624987194   0.124924771
   0.625481778   0.624824172   0.375134526
   0.625042259   0.625231318   0.625296179
   0.624970188   0.625075257   0.875377851
   0.624639713   0.875082979   0.124924636
   0.625471968   0.874965127   0.375246858
   0.625006148   0.874650246   0.624976405
   0.625554944   0.874714072   0.874846347
   0.875084328   0.125879747   0.125274317
   0.874927467   0.124935814   0.375018950
   0.875205938   0.125124028   0.625101463
   0.875106801   0.124885495   0.875168756
   0.875187174   0.374618967   0.125114886
   0.874900915   0.375388694   0.375093662
   0.874952203   0.375217263   0.625266162
   0.874692343   0.374889792   0.874726371
   0.874778220   0.625159652   0.124910220
   0.874721624   0.625026313   0.374918745
   0.874681702   0.624463628   0.624903216
   0.874534940   0.624928194   0.874856204
   0.875472560   0.875307317   0.125271994
   0.874988490   0.875099550   0.374707698
   0.875231100   0.874657361   0.625242787
   0.875201773   0.875023042   0.875481942
   0.124742291   0.125636042   0.000358052
   0.125679186   0.125083805   0.250035477
   0.125402299   0.125312136   0.499897383
   0.125107352   0.125298564   0.750450879
   0.125384450   0.374675538   0.000364871
   0.125054696   0.374502763   0.250394138
   0.124884688   0.374642233   0.499897562
   0.125218221   0.374867210   0.749813229
   0.125400698   0.624957796   0.999378046
   0.124902454   0.625336572   0.249776160
   0.125345704   0.624953417   0.500726032
   0.124859647   0.624935997   0.749795097
   0.125442003   0.875551162   0.999543301
   0.124411303   0.874678155   0.250152567
   0.124648066   0.875559494   0.500963682
   0.124363655   0.874505299   0.750093782
   0.375250407   0.124448482   0.999486810
   0.374703235   0.124518977   0.250054049
   0.375181891   0.124679579   0.500330011
   0.374832379   0.125296115   0.750098576
   0.374945111   0.375466807   0.999685629
   0.375194913   0.375479627   0.249821578
   0.375002788   0.375723497   0.499802408
   0.374940028   0.375309755   0.750627918
   0.375227212   0.624988189   0.000174163
   0.376162392   0.625093547   0.250151531
   0.374941275   0.624438043   0.500377889
   0.374903444   0.625228800   0.749621762
   0.374907073   0.875101060   0.999780812
   0.375167848   0.874493769   0.249948322
   0.375523341   0.874980144   0.500225911
   0.375267936   0.875048256   0.750275775
   0.625458124   0.125172022   0.999559026
   0.624545365   0.124913320   0.249602533
   0.624740970   0.125016330   0.499998301
   0.624702688   0.125224577   0.750163984
   0.625829898   0.375070136   0.000088152
   0.625559014   0.375242595   0.250109488
   0.624400269   0.374753515   0.500302135
   0.625374502   0.375134747   0.750167946
   0.624740578   0.625480267   0.999721504
   0.624710031   0.625083060   0.249596727
   0.624307682   0.625165187   0.500188257
   0.624623941   0.624995203   0.749957145
   0.625103704   0.874559277   0.999616882
   0.624856533   0.874575906   0.249857085
   0.625055021   0.874862913   0.500364795
   0.625282816   0.875407806   0.750008052
   0.875379092   0.124544670   0.000344452
   0.875117398   0.125184714   0.249946334
   0.874706924   0.125312401   0.500477539
   0.874829437   0.124246668   0.750512433
   0.874609091   0.375119183   0.999298451
   0.874574436   0.375454100   0.250175875
   0.874820218   0.374786900   0.500290989
   0.874879886   0.374972564   0.750445386
   0.875189090   0.625542711   0.000021597
   0.875139677   0.624960181   0.250005059
   0.875029641   0.624640680   0.499925857
   0.875105240   0.624640735   0.750391802
   0.874657155   0.874978947   0.999687164
   0.874714308   0.874991524   0.249528526
   0.875745242   0.875344794   0.500838728
   0.875275314   0.874867945   0.750156912
   0.124416235   0.999992790   0.124938032
   0.124612389   0.999890300   0.374701091
   0.124688864   0.999608367   0.624986715
   0.123963996   0.999935260   0.875263364
   0.124078373   0.249940274   0.125485735
   0.125237418   0.250655576   0.375454759
   0.124813840   0.249941103   0.625230719
   0.125433607   0.249986630   0.875142668
   0.125220164   0.499961440   0.124721089
   0.125008389   0.499610411   0.374836451
   0.125499183   0.500136331   0.623946900
   0.124972272   0.500337793   0.875536324
   0.125205613   0.749849440   0.125336955
   0.124599498   0.749758726   0.374954201
   0.124634922   0.749857619   0.625074908
   0.125637789   0.750546381   0.875008900
   0.375621223   0.000839743   0.125552517
   0.375200359   0.999950742   0.375323302
   0.375873209   0.999346935   0.625278926
   0.375111668   0.000064528   0.875141924
   0.375088964   0.250482166   0.125206182
   0.375189296   0.249583427   0.375271043
   0.375193136   0.250296281   0.624684884
   0.374768932   0.249865247   0.874672471
   0.374914507   0.500064750   0.124918653
   0.373884551   0.499858390   0.375486453
   0.374874544   0.500405733   0.625219241
   0.375646955   0.499681063   0.875638214
   0.374721552   0.749747195   0.125109658
   0.375345735   0.749953715   0.374925043
   0.374783092   0.749604979   0.625269872
   0.374626039   0.749430395   0.874664298
   0.624772261   0.000213799   0.125310238
   0.625008462   0.000200391   0.375628073
   0.625199174   0.999545788   0.625246974
   0.625206437   0.999733143   0.875123859
   0.624886963   0.249728608   0.124995387
   0.625300534   0.249955734   0.374854893
   0.624839441   0.249527344   0.625179635
   0.624576572   0.250201749   0.874739509
   0.624742196   0.500239066   0.124670689
   0.625098309   0.500343373   0.375181140
   0.625014651   0.500066015   0.625072664
   0.624813364   0.499962050   0.875281585
   0.625003846   0.750003474   0.124849274
   0.625047446   0.749791159   0.374868783
   0.625836875   0.750936398   0.625469046
   0.624842751   0.749351035   0.874979766
   0.875679498   0.999956100   0.125285376
   0.874705149   0.999722573   0.374628900
   0.874499282   0.000670602   0.624829576
   0.875625587   0.999902162   0.875720969
   0.875870102   0.249955647   0.125199978
   0.874834276   0.249772419   0.375041645
   0.874612122   0.250265053   0.624580466
   0.874992696   0.250591060   0.874862300
   0.875359902   0.500790349   0.125106419
   0.874928916   0.500120644   0.374717602
   0.875448956   0.500118334   0.625402903
   0.875535322   0.499720681   0.875091262
   0.874705916   0.749778828   0.124720358
   0.874891889   0.750492942   0.374412687
   0.875184927   0.749711124   0.624592051
   0.874581538   0.749971182   0.875315672
   0.000250685   0.125383247   0.125276772
   0.999479299   0.125083370   0.375274930
   0.000185896   0.125103944   0.625698754
   0.000080208   0.125281258   0.875190995
   0.999955499   0.374865830   0.125148792
   0.000601776   0.375136417   0.375626236
   0.000180112   0.374735660   0.625498088
   0.000209693   0.375138433   0.875174163
   0.000411662   0.625180965   0.124372987
   0.999652825   0.624828830   0.374886077
   0.999948404   0.624958676   0.624674816
   0.000501831   0.624837300   0.874518420
   0.000582283   0.875079262   0.124764573
   0.999641724   0.875032102   0.374169917
   0.000184789   0.875140005   0.624595654
   0.999923676   0.875493422   0.875698452
   0.249477367   0.125552945   0.124912189
   0.249843742   0.124754161   0.375234583
   0.249977526   0.125197436   0.624216367
   0.250147973   0.125421086   0.874855942
   0.249860333   0.375461793   0.124988069
   0.249820341   0.375052308   0.375359814
   0.250714231   0.374767756   0.625373330
   0.250186354   0.374985086   0.875058097
   0.249773598   0.625446869   0.124848309
   0.250018390   0.625194049   0.374669419
   0.249942313   0.625037078   0.624759063
   0.249541791   0.624562375   0.875259521
   0.250049888   0.874924303   0.125186417
   0.249864214   0.874648618   0.375036079
   0.249735751   0.875269572   0.624662493
   0.249489228   0.874947151   0.875591401
   0.499438530   0.125181864   0.125565936
   0.500085265   0.125213424   0.374927485
   0.499877701   0.125672578   0.624953597
   0.499308964   0.125373275   0.874595305
   0.500468591   0.375299242   0.124959177
   0.500091971   0.375394319   0.375627543
   0.500205576   0.374711555   0.625512546
   0.499938745   0.375404302   0.875355681
   0.500363410   0.624557548   0.124715841
   0.500161115   0.625172323   0.375155681
   0.500300675   0.625307096   0.625080492
   0.499860150   0.624985058   0.874941424
   0.500435046   0.875030323   0.124831778
   0.500103629   0.875193704   0.374414628
   0.500381133   0.874987632   0.625190874
   0.499524747   0.874601134   0.875408939
   0.749930987   0.124847651   0.125551346
   0.750455352   0.125683974   0.375304527
   0.750385927   0.125045444   0.625128996
   0.749929642   0.124735192   0.874909242
   0.749590049   0.375469263   0.124908767
   0.750399910   0.375178296   0.374746158
   0.750206717   0.375139730   0.624967112
   0.749848368   0.374611813   0.874137190
   0.750441831   0.625433965   0.125231596
   0.750172043   0.624909787   0.374265918
   0.749979858   0.624851075   0.625227758
   0.749558617   0.625088745   0.875221284
   0.749761631   0.875190657   0.125044748
   0.750030360   0.874812993   0.374961261
   0.750251072   0.875284784   0.624678597
   0.750016206   0.874964995   0.874604683
   0.021162039   0.017663927   0.078532608
   0.052168029   0.051750611   0.086899252
   0.974719318   0.022396675   0.087478285
   0.036712123   0.973807533   0.079691321
   0.057779455   0.023520042   0.000859251
   0.001622817   0.057271458   0.005315190
   0.000631096   0.986940062   0.004866483
   0.019449451   0.021478681   0.018453621
Direct configuration=     15
   0.999737741   0.000222537   0.250056991
   0.000557353   0.000610996   0.499952006
   0.999537366   0.999528481   0.749103983
   0.000579051   0.249051002   0.999611037
   0.999777075   0.249948431   0.249797928
   0.999751584   0.249788023   0.500637332
   0.999731845   0.249663561   0.749947047
   0.001026591   0.500211812   0.999856953
   0.000819407   0.499256093   0.250581597
   0.001203690   0.499309321   0.500388378
   0.000306486   0.499910218   0.750816411
   0.999907189   0.750085677   0.000136747
   0.000193509   0.750678038   0.249980672
   0.999679495   0.749401007   0.500614597
   0.000175430   0.749473955   0.749268572
   0.250079908   0.000367855   0.000416607
   0.249787362   0.999751581   0.249636898
   0.250119873   0.998903437   0.500574178
   0.250399185   0.000108683   0.750128175
   0.250884097   0.250298316   0.999964638
   0.249918808   0.251089804   0.249844101
   0.250106673   0.250231760   0.500268507
   0.250140090   0.249977330   0.749577149
   0.250671759   0.500854237   0.999556497
   0.250618219   0.499863392   0.249616787
   0.250288358   0.501062417   0.500159165
   0.251147038   0.499207056   0.749165168
   0.250520313   0.749685096   0.000017702
   0.249748182   0.750055374   0.249877749
   0.250533745   0.749795310   0.499744777
   0.249529917   0.749964486   0.750417749
   0.499499595   0.999768310   0.999158097
   0.500693211   0.999845431   0.248949225
   0.501448009   0.999692560   0.500274151
   0.500013335   0.000054776   0.749511776
   0.499030339   0.249301218   0.999944070