CH6Cs63I192NPb64
   1.00000000
   25.160000000   0.000000000   0.000000000
   0.000000000   25.160000000   0.000000000
   0.000000000   0.000000000   25.160000000
  Cs  Pb  I  C  H  N
  63  64  192  1  6  1
Direct configuration=     5
   0.000135529   0.999986659   0.249650248
   0.000082544   0.999878712   0.499915421
   0.000052341   0.999929195   0.749973758
   0.000011772   0.249849265   0.000073338
   0.000343587   0.250117750   0.249989800
   0.999664825   0.250360809   0.500236293
   0.999755901   0.249963878   0.749856275
   0.000055207   0.499984874   0.999872563
   0.999913730   0.500236969   0.250013537
   0.999635182   0.500003476   0.499943607
   0.999940764   0.500040587   0.749964631
   0.999847737   0.750039031   0.000032583
   0.000011574   0.750293574   0.249697998
   0.000294078   0.749963429   0.500096029
   0.999830691   0.749953921   0.749797250
   0.250092296   0.000062096   0.999750750
   0.250242306   0.000252424   0.249947348
   0.250056736   0.000121619   0.500284248
   0.249824333   0.000142756   0.750117858
   0.250060073   0.249830087   0.999755677
   0.250094990   0.249952778   0.249584746
   0.250498004   0.249961872   0.500117809
   0.250097912   0.249975871   0.749764548
   0.249969512   0.500037023   0.999983786
   0.250281221   0.499791710   0.249649691
   0.249717713   0.500289849   0.500160074
   0.249790662   0.499753078   0.749840335
   0.249923921   0.749942083   0.000045234
   0.249898381   0.749722338   0.249714787
   0.250333103   0.749908578   0.500067676
   0.249851619   0.749973961   0.750355831
   0.500037310   0.999831519   0.999855002
   0.499890478   0.000023861   0.249834778
   0.499815975   0.000156619   0.499801393
   0.499913751   0.000343847   0.749945065
   0.499561941   0.249846253   0.999882054
   0.499961333   0.250084971   0.250018550
   0.500113599   0.250095366   0.499893669
   0.499863080   0.250189644   0.749916555
   0.500160536   0.499792963   0.999840998
   0.499930970   0.499820558   0.249843679
   0.499887896   0.500347142   0.500265973
   0.499793526   0.499734313   0.750000386
   0.499888792   0.749728336   0.000217231
   0.500278675   0.749924320   0.250128166
   0.499768487   0.749917396   0.499798567
   0.500023434   0.750028636   0.750133500
   0.750137105   0.999964191   0.999913531
   0.749701264   0.000071346   0.250103210
   0.750198419   0.000066786   0.499813014
   0.750118688   0.000038409   0.750211864
   0.749833279   0.249852587   0.000027238
   0.749953420   0.250043525   0.249849422
   0.749423512   0.250033104   0.500138352
   0.750323129   0.249803406   0.750064204
   0.750164738   0.499862584   0.000232352
   0.750284982   0.499896574   0.250048377
   0.750153890   0.499839232   0.499969002
   0.749992335   0.499925797   0.749905570
   0.749848943   0.749815169   0.000067492
   0.750025487   0.750195873   0.250212470
   0.749937252   0.749956952   0.500039069
   0.749951403   0.750031931   0.750051072
   0.124919717   0.124863531   0.124887072
   0.125234117   0.125138623   0.374960759
   0.124817641   0.124907330   0.624927226
   0.124903594   0.125393072   0.875300143
   0.125062009   0.374775825   0.124816434
   0.124912339   0.375132879   0.375129464
   0.124978004   0.375114962   0.625446567
   0.124962849   0.374730453   0.874810350
   0.125072922   0.624795810   0.125164717
   0.124905516   0.625078784   0.375275586
   0.124895209   0.625291878   0.625288018
   0.124996417   0.624845774   0.875081640
   0.124882663   0.874778941   0.125172655
   0.125209468   0.874766419   0.374959508
   0.124958586   0.875014316   0.625012044
   0.124893683   0.874799862   0.875085378
   0.375067963   0.124838727   0.125115880
   0.374942050   0.124913903   0.375174822
   0.374942500   0.125119067   0.624834330
   0.375183515   0.124935553   0.874896609
   0.374856378   0.375116529   0.124969854
   0.374811421   0.375014237   0.374718320
   0.375137269   0.374917825   0.624697755
   0.374901929   0.375031346   0.875309891
   0.374969304   0.625083387   0.125053472
   0.374971008   0.624916880   0.374623488
   0.374862899   0.625072887   0.625010756
   0.375013200   0.625099751   0.875013309
   0.375065892   0.874769931   0.124959981
   0.375166656   0.874960818   0.374960252
   0.374988547   0.875019422   0.625043661
   0.375077795   0.875064025   0.874954694
   0.625039618   0.124852371   0.124981053
   0.624952296   0.124981696   0.374892356
   0.624972385   0.125106489   0.625070560
   0.625136290   0.124903178   0.875153517
   0.624883951   0.374908259   0.125021812
   0.625223963   0.375043851   0.374959301
   0.624802517   0.375006377   0.625246910
   0.624879407   0.374817291   0.875061783
   0.625164490   0.625092704   0.125007495
   0.624762972   0.624960630   0.375125936
   0.624954610   0.625143484   0.625090287
   0.624867805   0.624816985   0.874763354
   0.624862734   0.875141809   0.125125621
   0.624958355   0.874873213   0.375075060
   0.625227373   0.874924532   0.625056732
   0.625188463   0.874840272   0.874869363
   0.875149261   0.125078998   0.125114118
   0.875086809   0.125011557   0.375218355
   0.874925735   0.124805693   0.625073764
   0.874792309   0.124965624   0.875164589
   0.875037930   0.375106652   0.125089144
   0.874907153   0.374944401   0.375098037
   0.874941171   0.374725954   0.625061135
   0.875078905   0.375186247   0.874858173
   0.874976824   0.624903086   0.125146778
   0.874942011   0.625047506   0.375129614
   0.875225919   0.625090507   0.625025754
   0.875021750   0.625136867   0.874976748
   0.875114791   0.874963608   0.124973483
   0.875048924   0.875249312   0.374797493
   0.874959008   0.874993892   0.625071036
   0.875014705   0.874981977   0.874816436
   0.124771839   0.124859197   0.999779759
   0.124851242   0.125153461   0.249879638
   0.125074474   0.125360564   0.499762936
   0.125084319   0.124868187   0.749719635
   0.125215157   0.374752703   0.000031185
   0.124774916   0.374605610   0.249938676
   0.125234955   0.375203643   0.500067444
   0.125024694   0.375227139   0.750192118
   0.125044986   0.624959661   0.000310386
   0.125025398   0.625091716   0.250210405
   0.124834144   0.624990840   0.499759081
   0.125097312   0.624812107   0.750093532
   0.124804072   0.875162697   0.000270548
   0.124766405   0.875296010   0.250033807
   0.125031687   0.875204878   0.499865389
   0.125322399   0.875125021   0.749981411
   0.375363008   0.125172716   0.999902901
   0.374804518   0.125220817   0.249965639
   0.374863565   0.125342348   0.499932181
   0.374978116   0.124701093   0.750051786
   0.374714179   0.374944763   0.000030149
   0.375160886   0.375011028   0.249947058
   0.375167840   0.375090521   0.499938551
   0.375071158   0.374902918   0.750302830
   0.374955869   0.624802256   0.000289647
   0.375034202   0.624974549   0.249895687
   0.374987479   0.625034647   0.500219247
   0.374765262   0.624881056   0.749976541
   0.374981346   0.874900100   0.000276092
   0.374953999   0.874981418   0.250111581
   0.374786067   0.875262244   0.500054798
   0.375106430   0.875188803   0.749964510
   0.625050416   0.125221512   0.000333489
   0.625157032   0.125111944   0.250247949
   0.625047152   0.124996411   0.499870637
   0.624857031   0.125079807   0.750121206
   0.624837024   0.374621170   0.000099984
   0.625003353   0.374984981   0.250226918
   0.624968504   0.375012108   0.499907479
   0.624894813   0.374941164   0.750388256
   0.625029125   0.625125664   0.999605515
   0.624804317   0.625050586   0.249768257
   0.625193974   0.625124521   0.499951638
   0.625093553   0.625108721   0.749862352
   0.624981873   0.874842423   0.999764325
   0.624985334   0.874622943   0.250312931
   0.625198577   0.874881792   0.500143912
   0.625009693   0.875013923   0.749724327
   0.874946377   0.125036999   0.999705642
   0.874995126   0.125097800   0.250261702
   0.874886101   0.125171492   0.499773696
   0.875065111   0.124988980   0.749896480
   0.874865896   0.374901446   0.000292251
   0.874767904   0.375156719   0.249956960
   0.875048245   0.374847904   0.499897768
   0.875169582   0.375018070   0.750091702
   0.874732422   0.624777363   0.999966274
   0.875018978   0.625233136   0.249897507
   0.874991362   0.624899114   0.500079269
   0.875084742   0.624804225   0.749607217
   0.875170238   0.875336697   0.000137315
   0.874954717   0.874726904   0.249992689
   0.875022184   0.875354516   0.499880797
   0.875077239   0.875068568   0.750259692
   0.124857993   0.000037754   0.124892917
   0.125280100   0.000098992   0.375163194
   0.125069222   0.999771981   0.625272292
   0.125050530   0.999797151   0.874774428
   0.124743192   0.250044621   0.125265473
   0.124974861   0.250137719   0.375059094
   0.125122982   0.249926677   0.625067009
   0.125208615   0.249847400   0.874974179
   0.125212630   0.499767540   0.124861995
   0.125193520   0.500057279   0.374635295
   0.124934659   0.499931195   0.624828621
   0.125133283   0.500160934   0.874984657
   0.125111947   0.750153768   0.125012682
   0.125007194   0.749990036   0.374698105
   0.125388233   0.750005163   0.625177144
   0.125094213   0.750046442   0.875234858
   0.375233172   0.999916795   0.125348349
   0.375134775   0.999923655   0.374926096
   0.375041682   0.999976204   0.625084043
   0.374870486   0.999995169   0.874780503
   0.374930855   0.250092739   0.125129802
   0.375084971   0.250321949   0.374787080
   0.374799391   0.250101618   0.624991175
   0.375061300   0.249661252   0.875125227
   0.375069826   0.499745158   0.125021196
   0.375388056   0.500015693   0.374821197
   0.374666312   0.500188100   0.625014734
   0.375114781   0.500270715   0.874893161
   0.375053811   0.750353968   0.124424892
   0.375401281   0.749575950   0.374824088
   0.375063743   0.750023786   0.624903331
   0.374762228   0.750069554   0.875286313
   0.624702381   0.000431926   0.125092546
   0.625247770   0.000288002   0.375237724
   0.624729585   0.000034153   0.625162716
   0.625087206   0.999988909   0.874611567
   0.625366954   0.250033875   0.125246646
   0.625265198   0.250222067   0.374808373
   0.624781182   0.249854402   0.624988489
   0.625357478   0.250482310   0.875206527
   0.625182432   0.500160491   0.124937376
   0.624795543   0.500065199   0.375107404
   0.624790401   0.500086618   0.624891823
   0.624973059   0.499810868   0.874892743
   0.624894978   0.750160911   0.124729294
   0.624797800   0.749821759   0.375021635
   0.625083657   0.749911477   0.625128824
   0.625215501   0.750024003   0.875057023
   0.874844416   0.999776780   0.125155719
   0.874890835   0.000059484   0.375232152
   0.875076951   0.999949224   0.625264210
   0.874803092   0.000205206   0.874961631
   0.875249253   0.250029756   0.125057536
   0.874796003   0.250112828   0.374786719
   0.874974880   0.250129873   0.624744203
   0.874965492   0.250076616   0.874877958
   0.874942431   0.499642059   0.125080895
   0.875046602   0.499990607   0.375202443
   0.874981360   0.499976470   0.625295959
   0.875045205   0.500075287   0.874584163
   0.874552747   0.750223060   0.125139745
   0.874956154   0.750202695   0.375134318
   0.875073188   0.750088386   0.624953795
   0.874824026   0.749998673   0.875120467
   0.000301854   0.125104115   0.124991593
   0.999893015   0.125085253   0.375170239
   0.000033429   0.124968334   0.625047356
   0.999917716   0.124889680   0.874726355
   0.999887613   0.375010633   0.125088378
   0.000325180   0.375296877   0.375065673
   0.000073378   0.374953536   0.624896082
   0.000168798   0.374794477   0.874898314
   0.999751841   0.625122923   0.124965872
   0.999646731   0.624891852   0.374801641
   0.000158682   0.625088109   0.624929191
   0.999758181   0.624680560   0.875385138
   0.999993067   0.874895974   0.125289156
   0.999768373   0.875176689   0.374725349
   0.000012904   0.874880751   0.624871095
   0.999974363   0.875556476   0.874872999
   0.249818381   0.125131312   0.125372692
   0.250208427   0.124524789   0.374855917
   0.249598141   0.125251870   0.625100193
   0.250028551   0.124923433   0.875377383
   0.250045774   0.375072198   0.125125238
   0.249999509   0.374997187   0.375032902
   0.250187181   0.375018406   0.625239684
   0.249848922   0.375041731   0.874852062
   0.250040923   0.625164717   0.124275897
   0.249804390   0.625002796   0.375045818
   0.250029351   0.625126944   0.625156034
   0.249916506   0.625030129   0.875086883
   0.249938834   0.874614650   0.124880062
   0.250223918   0.874942796   0.375012170
   0.249821036   0.875204751   0.625474938
   0.249999541   0.875131547   0.875273143
   0.499722270   0.125061251   0.125321439
   0.500033684   0.125009663   0.375341261
   0.499924361   0.124882740   0.625135886
   0.499872570   0.125109869   0.875028945
   0.499874791   0.375174413   0.125025868
   0.499782886   0.375068862   0.374792699
   0.499993631   0.374819152   0.625104513
   0.500195094   0.375080739   0.875006631
   0.500122961   0.625113907   0.124924756
   0.500176835   0.624994470   0.374886152
   0.499640847   0.625002076   0.625223486
   0.500172223   0.624856585   0.874745199
   0.499779470   0.874750355   0.124861033
   0.499940069   0.874926391   0.374861990
   0.499916094   0.874592304   0.625280906
   0.499826688   0.875307379   0.875002212
   0.749781253   0.124720333   0.125064309
   0.749800946   0.124952600   0.374803926
   0.750371458   0.125232202   0.624930154
   0.749951886   0.124803363   0.874857762
   0.749972031   0.375034390   0.124861802
   0.750112636   0.374972968   0.375109465
   0.749903688   0.374722792   0.624744643
   0.750256538   0.374927714   0.875187711
   0.749654044   0.625015796   0.125038289
   0.750185650   0.625079922   0.375067638
   0.749822427   0.624774286   0.624916777
   0.750012058   0.625007260   0.875259012
   0.749969912   0.875014213   0.124941902
   0.750194546   0.874935636   0.375059628
   0.749832733   0.875328894   0.625191710
   0.750056571   0.875310526   0.875003897
   0.020501761   0.019808689   0.079881383
   0.040405462   0.058140038   0.065312643
   0.977636589   0.020428422   0.072042604
   0.041498289   0.982051605   0.070349318
   0.059323231   0.016969487   0.009946731
   0.001783208   0.049975849   0.003260745
   0.004553413   0.983585074   0.006096163
   0.019895207   0.019628518   0.019699032
Direct configuration=     10
   0.000270522   0.999973328   0.249274476
   0.000149864   0.999765373   0.499835988
   0.000118952   0.999867084   0.749941607
   0.000021123   0.249708475   0.000148073
   0.000696161   0.250239463   0.249973508
   0.999323116   0.250717780   0.500466564
   0.999510104   0.249925267   0.749730697
   0.000111785   0.499955689   0.999732444
   0.999806709   0.500469235   0.250026257
   0.999278018   0.500008184   0.499894070
   0.999877615   0.500078173   0.749920884
   0.999701180   0.750082689   0.000083529
   0.000016818   0.750587507   0.249404761
   0.000607592   0.749922354   0.500185322
   0.999674184   0.749910789   0.749598551
   0.250197232   0.000130289   0.999487646
   0.250482314   0.000495213   0.249893286
   0.250121121   0.000257222   0.500578792
   0.249647404   0.000272460   0.750226909
   0.250126998   0.249651890   0.999519218
   0.250188360   0.249917845   0.249192644
   0.250981339   0.249909090   0.500225314
   0.250203028   0.249954326   0.749548889
   0.249931091   0.500065699   0.999975124
   0.250571683   0.499591703   0.249296480
   0.249424496   0.500585108   0.500340199
   0.249585615   0.499505057   0.749683912
   0.249850566   0.749870161   0.000091769
   0.249805838   0.749450324   0.249444080
   0.250681759   0.749810833   0.500146953
   0.249704723   0.749943190   0.750710921
   0.500072684   0.999658769   0.999726901
   0.499779370   0.000039928   0.249651574
   0.499638628   0.000301236   0.499589384
   0.499825867   0.000668347   0.749890665
   0.499132092   0.249677510   0.999748418
   0.499931410   0.250181093   0.250042456
   0.500223476   0.250177112   0.499797462
   0.499743171   0.250387947   0.749840162
   0.500309921   0.499578667   0.999697840
   0.499854670   0.499652618   0.249696568
   0.499785006   0.500700398   0.500536526
   0.499590931   0.499481809   0.750003904
   0.499770269   0.749456522   0.000436922
   0.500557429   0.749848195   0.250247625
   0.499512843   0.749841435   0.499593181
   0.500045450   0.750048279   0.750262403
   0.750272533   0.999933681   0.999814737
   0.749404698   0.000132812   0.250187111
   0.750393673   0.000130030   0.499622381
   0.750227940   0.000068508   0.750413578
   0.749666682   0.249705295   0.000063826
   0.749911295   0.250072375   0.249683342
   0.748873995   0.250056435   0.500276019
   0.750643573   0.249604035   0.750137173
   0.750330573   0.499744240   0.000472174
   0.750580226   0.499800324   0.250095955
   0.750304656   0.499682908   0.499936899
   0.749977986   0.499854132   0.749840895
   0.749679961   0.749634629   0.000133007
   0.750055956   0.750388301   0.250429324
   0.749859540   0.749911902   0.500074736
   0.749902165   0.750060101   0.750106550
   0.124851606   0.124714386   0.124777861
   0.125479788   0.125271719   0.374928665
   0.124646919   0.124821452   0.624859142
   0.124790409   0.125781098   0.875596701
   0.125134516   0.374557215   0.124637110
   0.124834144   0.375267057   0.375252569
   0.124964192   0.375235442   0.625890044
   0.124910883   0.374445834   0.874619567
   0.125144340   0.624587811   0.125331153
   0.124811942   0.625156404   0.375549715
   0.124781094   0.625589781   0.625567263
   0.124989623   0.624672331   0.875169045
   0.124773720   0.874552980   0.125340337
   0.125429339   0.874532522   0.374917246
   0.124925752   0.875041633   0.625027566
   0.124789523   0.874585338   0.875173898
   0.375129030   0.124690338   0.125229594
   0.374880386   0.124836183   0.375339224
   0.374888122   0.125246906   0.624679272
   0.375342803   0.124856516   0.874799741
   0.374718992   0.375219478   0.124936617
   0.374629494   0.375035598   0.374445069
   0.375270068   0.374838485   0.624396450
   0.374807517   0.375055018   0.875612036
   0.374948711   0.625167824   0.125107500
   0.374950289   0.624819343   0.374244326
   0.374735699   0.625135454   0.625009192
   0.375025966   0.625193842   0.875012378
   0.375151050   0.874535007   0.124909177
   0.375337635   0.874922044   0.374911396
   0.374968786   0.875042908   0.625090222
   0.375147793   0.875137841   0.874912758
   0.625080544   0.124701265   0.124953506
   0.624916070   0.124954995   0.374786783
   0.624943678   0.125228774   0.625148189
   0.625264553   0.124812082   0.875303755
   0.624758905   0.374815256   0.125042331
   0.625431980   0.375089784   0.374932808
   0.624607707   0.375020156   0.625484045
   0.624769492   0.374651156   0.875128477
   0.625333838   0.625182486   0.125016503
   0.624524365   0.624931320   0.375253182
   0.624900108   0.625292753   0.625176756
   0.624733338   0.624635088   0.874533554
   0.624730399   0.875290590   0.125259380
   0.624919094   0.874745399   0.375154183
   0.625445967   0.874851663   0.625120405
   0.625377467   0.874687153   0.874730381
   0.875296036   0.125156778   0.125232743
   0.875175670   0.125020026   0.375438929
   0.874848349   0.124621293   0.625156692
   0.874589750   0.124944607   0.875324604
   0.875076882   0.375218318   0.125185394
   0.874817279   0.374900125   0.375198477
   0.874871252   0.374437526   0.625134155
   0.875158944   0.375361007   0.874710425
   0.874953450   0.624807706   0.125294223
   0.874890066   0.625109027   0.375252784
   0.875460724   0.625170074   0.625047471
   0.875039485   0.625268431   0.874954576
   0.875222527   0.874923857   0.124946657
   0.875086411   0.875502198   0.374597425
   0.874922417   0.874991383   0.625126739
   0.875037211   0.874974708   0.874644683
   0.124526694   0.124729704   0.999552610
   0.124701089   0.125297667   0.249769975
   0.125145557   0.125701919   0.499530304
   0.125160816   0.124752537   0.749443486
   0.125413373   0.374502826   0.000048876
   0.124540339   0.374207898   0.249902266
   0.125467769   0.375403851   0.500139208
   0.125079848   0.375456397   0.750388660
   0.125092782   0.624925390   0.000616135
   0.125030893   0.625181467   0.250418898
   0.124667868   0.624996588   0.499515772
   0.125191868   0.624621224   0.750194251
   0.124611385   0.875313346   0.000550444
   0.124533357   0.875546372   0.250063278
   0.125064301   0.875414373   0.499716867
   0.125629640   0.875252644   0.749950773
   0.375721374   0.125337012   0.999828300
   0.374595523   0.125428631   0.249924463
   0.374733844   0.125692172   0.499868236
   0.374963910   0.124424077   0.750091685
   0.374435369   0.374867256   0.000060989
   0.375301434   0.375010034   0.249910378
   0.375332750   0.375179126   0.499892409
   0.375137697   0.374812151   0.750611618
   0.374913061   0.624603954   0.000579549
   0.375052185   0.624938367   0.249802493
   0.374968604   0.625052382   0.500411856
   0.374527946   0.624767331   0.749954354
   0.374963292   0.874793583   0.000548802
   0.374920236   0.874970898   0.250206502
   0.374571656   0.875524722   0.500113403
   0.375219381   0.875359315   0.749916446
   0.625087046   0.125439654   0.000674742
   0.625311975   0.125234736   0.250498355
   0.625088696   0.124989417   0.499761000
   0.624721633   0.125161064   0.750256656
   0.624674420   0.374250553   0.000197841
   0.625019160   0.374983343   0.250462462
   0.624933293   0.375033779   0.499833557
   0.624786938   0.374879581   0.750777860
   0.625089214   0.625250370   0.999211674
   0.624609867   0.625096008   0.249530733
   0.625358241   0.625246227   0.499905479
   0.625176606   0.625200653   0.749734142
   0.624982474   0.874688322   0.999515038
   0.624959069   0.874246798   0.250629391
   0.625402603   0.874779199   0.500290037
   0.625009131   0.875023693   0.749433742
   0.874880716   0.125064086   0.999394634
   0.875000072   0.125193774   0.250518507
   0.874773270   0.125337983   0.499547117
   0.875129730   0.124991259   0.749782967
   0.874746976   0.374828281   0.000585423
   0.874535456   0.375326481   0.249907949
   0.875116490   0.374692523   0.499801085
   0.875344028   0.375027602   0.750175419
   0.874457115   0.624548824   0.999935781
   0.875043979   0.625448890   0.249790138
   0.874981418   0.624794670   0.500162553
   0.875177189   0.624620100   0.749203731
   0.875330568   0.875667335   0.000278376
   0.874903718   0.874467185   0.249996248
   0.875042542   0.875702385   0.499769465
   0.875136488   0.875138901   0.750505501
   0.124743218   0.000075822   0.124797462
   0.125561591   0.000212632   0.375325211
   0.125134524   0.999553090   0.625521152
   0.125109641   0.999602074   0.874549602
   0.124490410   0.250067340   0.125512367
   0.124952941   0.250265368   0.375109760
   0.125242264   0.249844322   0.625124643
   0.125420161   0.249713197   0.874918759
   0.125407742   0.499529274   0.124727024
   0.125387406   0.500115998   0.374266706
   0.124883112   0.499850436   0.624654426
   0.125254075   0.500338493   0.874946768
   0.125212781   0.750290682   0.125028427
   0.125021215   0.749982867   0.374398424
   0.125772470   0.750015443   0.625351198
   0.125190453   0.750077886   0.875468944
   0.375465067   0.999829057   0.125672974
   0.375257841   0.999837048   0.374862965
   0.375067684   0.999933098   0.625169447
   0.374751629   0.999985976   0.874571801
   0.374869120   0.250187123   0.125245742
   0.375165188   0.250647568   0.374569047
   0.374597190   0.250197341   0.625000937
   0.375126393   0.249334646   0.875244762
   0.375151782   0.499488397   0.125031345
   0.375764865   0.500028361   0.374643527
   0.374348801   0.500384282   0.625037578
   0.375239493   0.500550758   0.874777371
   0.375115298   0.750706883   0.123847158
   0.375795988   0.749167484   0.374663326
   0.375131429   0.750044014   0.624802101
   0.374519496   0.750123887   0.875562756
   0.624406796   0.000859548   0.125175530
   0.625498851   0.000592350   0.375468212
   0.624482788   0.000078011   0.625339541
   0.625178216   0.999971814   0.874232570
   0.625729426   0.250050219   0.125520080
   0.625520671   0.250451336   0.374617449
   0.624561939   0.249699447   0.624978494
   0.625723518   0.250977298   0.875419328
   0.625377083   0.500333548   0.124882191
   0.624586322   0.500128595   0.375209377
   0.624582275   0.500174025   0.624754516
   0.624967151   0.499616243   0.874796086
   0.624783656   0.750324460   0.124447520
   0.624604659   0.749657933   0.375039285
   0.625155427   0.749830049   0.625258865
   0.625443443   0.750033167   0.875119320
   0.874676835   0.999548405   0.125308100
   0.874781565   0.000123606   0.375477202
   0.875145827   0.999895381   0.625519685
   0.874599576   0.000419725   0.874930354
   0.875501849   0.250055599   0.125126929
   0.874581856   0.250233269   0.374570870
   0.874973046   0.250263176   0.624486312
   0.874943024   0.250153148   0.874769437
   0.874885555   0.499290214   0.125166898
   0.875102896   0.499973093   0.375394671
   0.874956912   0.499961348   0.625589889
   0.875081165   0.500161385   0.874161344
   0.874092352   0.750443725   0.125275409
   0.874916723   0.750403305   0.375247062
   0.875164808   0.750161451   0.624902254
   0.874642485   0.750003114   0.875254375
   0.000594196   0.125237028   0.124997079
   0.999789830   0.125191758   0.375324842
   0.000070819   0.124934392   0.625102429
   0.999837334   0.124789325   0.874445561
   0.999759071   0.375040180   0.125158088
   0.000634860   0.375587555   0.375133129
   0.000140446   0.374913740   0.624793210
   0.000321600   0.374588610   0.874801943
   0.999502660   0.625242264   0.124953948
   0.999292537   0.624764308   0.374609329
   0.000327213   0.625186110   0.624854021
   0.999528186   0.624355773   0.875771223
   0.999971571   0.874800030   0.125581299
   0.999529277   0.875347320   0.374467654
   0.000032201   0.874749894   0.624727793
   0.999955299   0.876115334   0.874749102
   0.249639925   0.125272109   0.125751845
   0.250431269   0.124051454   0.374713199
   0.249185790   0.125491464   0.625192692
   0.250058231   0.124839302   0.875762533
   0.250096899   0.375149503   0.125240993
   0.250003055   0.375020844   0.375074532
   0.250386204   0.375046255   0.625467817
   0.249696265   0.375070856   0.874712818
   0.250063158   0.625323342   0.123539177
   0.249608874   0.625008269   0.375099223
   0.250080805   0.625251157   0.625320428
   0.249840583   0.625058765   0.875183244
   0.249879413   0.874223580   0.124760096
   0.250451026   0.874893931   0.375010113
   0.249643043   0.875409342   0.625949100
   0.249999134   0.875262994   0.875558601
   0.499443260   0.125142348   0.125633473
   0.500061367   0.125013218   0.375668801
   0.499848252   0.124750516   0.625286428
   0.499752760   0.125221383   0.875045301
   0.499746898   0.375341940   0.125060261
   0.499575458   0.375153790   0.374592076
   0.499987907   0.374641007   0.625195607
   0.500376900   0.375165598   0.875015678
   0.500230195   0.625215872   0.124835087
   0.500369777   0.624980768   0.374773852
   0.499285890   0.624985490   0.625442787
   0.500348235   0.624736075   0.874496698
   0.499572369   0.874523365   0.124725538
   0.499876446   0.874859027   0.374733052
   0.499849233   0.874184287   0.625563087
   0.499647686   0.875607020   0.874988282
   0.749584763   0.124449052   0.125120949
   0.749595821   0.124891851   0.374606135
   0.750739025   0.125463961   0.624853449
   0.749889487   0.124597877   0.874689516
   0.749929051   0.375072382   0.124735137
   0.750216193   0.374949019   0.375223129
   0.749797488   0.374473428   0.624485881
   0.750517125   0.374848153   0.875357761
   0.749285032   0.625038171   0.125075652
   0.750372487   0.625164886   0.375154021
   0.749637035   0.624548832   0.624836701
   0.750002383   0.625021471   0.875531096
   0.749948333   0.875027479   0.124880012
   0.750374232   0.874872213   0.375123949
   0.749658725   0.875656719   0.625379163
   0.750109926   0.875624840   0.875002783
   0.020917287   0.019732926   0.078832017
   0.042639006   0.061695780   0.074358432
   0.973759679   0.020955087   0.087437618
   0.043123566   0.978301796   0.083707186
   0.060584570   0.015295373   0.011239620
   0.001179835   0.049839027   0.998108889
   0.007714260   0.981703303   0.005473316
   0.020120846   0.018839891   0.018709314
Direct configuration=     15
   0.000415708   0.999945916   0.248885180
   0.000210237   0.999654037   0.499740645
   0.000200404   0.999815761   0.749917799
   0.000029190   0.249573485   0.000232192
   0.001062085   0.250367738   0.249967329
   0.998972002   0.251079666   0.500693567
   0.999261436   0.249896418   0.749606108
   0.000151982   0.499906437   0.999600038
   0.999690890   0.500703965   0.250034005
   0.998910212   0.500018343   0.499832892
   0.999802271   0.500120147   0.749861758
   0.999553210   0.750114751   0.000151879
   0.000027394   0.750885945   0.249113699
   0.000917516   0.749871850   0.500271821
   0.999538424   0.749870528   0.749394838
   0.250290975   0.000193110   0.999216685
   0.250729829   0.000732495   0.249839551
   0.250177188   0.000392164   0.500879152
   0.249465935   0.000393817   0.750319532
   0.250194531   0.249455809   0.999284666
   0.250271875   0.249878875   0.248809642
   0.251461163   0.249852755   0.500324033
   0.250328012   0.249938522   0.749335841
   0.249885442   0.500104668   0.999969678
   0.250878769   0.499378665   0.248941144
   0.249117700   0.500884280   0.500514109
   0.249378154   0.499274313   0.749530206
   0.249774662   0.749795266   0.000138310
   0.249712496   0.749194703   0.249201810
   0.251015596   0.749700911   0.500237675
   0.249552835   0.749906923   0.751069378
   0.500094565   0.999490105   0.999608017
   0.499669524   0.000050019   0.249468358
   0.499468883   0.000433996   0.499380402
   0.499725832   0.000977835   0.749828493
   0.498716764   0.249506766   0.999613028