<?xml version='1.0' encoding='utf-8'?>
<modeling>
 <generator>
  <i name="program" type="string">vasp </i>
  <i name="version" type="string">mace-ase  </i>
  <i name="platform" type="string">mace-ase</i>
  <i name="date" type="string">2026 04 13</i>
  <i name="time" type="string">02:57:59</i>
 </generator>
 <incar>
  <i name="SYSTEM" type="string">Si</i>
  <i name="NSW" type="int">   100</i>
  <i name="EDIFFG">      -0.01000000</i>
  <i name="IBRION" type="int">   1</i>
  <i name="POTIM">      0.80000000</i>
  <i name="ISIF" type="int">   2</i>
  <i name="IMAGES" type="int">   4</i>
  <i name="SPRING" type="int">   -5</i>
  <i name="LCLIMB" type="logical"> T  </i>
 </incar>
 <parameters>
  <separator name="electronic">
   <i type="int" name="NELM">   60</i>
   <i type="logical" name="LCHIMAG"> F  </i>
   <i name="EDIFF">      0.00010000</i>
  </separator>
  <separator name="ionic">
   <i type="int" name="NSW">   100</i>
   <i type="int" name="IBRION">   1</i>
   <i type="int" name="ISIF">   2</i>
   <i name="EDIFFG">      -0.01000000</i>
   <i type="int" name="LORBIT">   0</i>
  </separator>
 </parameters>
 <atominfo>
  <atoms>     15 </atoms>
  <types>      1 </types>
  <array name="atoms">
   <dimension dim="1">ion</dimension>
   <field type="string">element</field>
   <field type="int">atomtype</field>
   <set>
    <rc>
     <c>Si</c>
     <c>   1</c>
    </rc>
    <rc>
     <c>Si</c>
     <c>   1</c>
    </rc>
    <rc>
     <c>Si</c>
     <c>   1</c>
    </rc>
    <rc>
     <c>Si</c>
     <c>   1</c>
    </rc>
    <rc>
     <c>Si</c>
     <c>   1</c>
    </rc>
    <rc>
     <c>Si</c>
     <c>   1</c>
    </rc>
    <rc>
     <c>Si</c>
     <c>   1</c>
    </rc>
    <rc>
     <c>Si</c>
     <c>   1</c>
    </rc>
    <rc>
     <c>Si</c>
     <c>   1</c>
    </rc>
    <rc>
     <c>Si</c>
     <c>   1</c>
    </rc>
    <rc>
     <c>Si</c>
     <c>   1</c>
    </rc>
    <rc>
     <c>Si</c>
     <c>   1</c>
    </rc>
    <rc>
     <c>Si</c>
     <c>   1</c>
    </rc>
    <rc>
     <c>Si</c>
     <c>   1</c>
    </rc>
    <rc>
     <c>Si</c>
     <c>   1</c>
    </rc>
   </set>
  </array>
  <array name="atomtypes">
   <dimension dim="1">type</dimension>
   <field type="int">atomspertype</field>
   <field type="string">element</field>
   <field>mass</field>
   <field>valence</field>
   <field type="string">pseudopotential</field>
   <set>
    <rc>
     <c>     15</c>
     <c>Si</c>
     <c>       28.08500000</c>
     <c>       0.00000000</c>
     <c>  PAW_PBE Si (MACE)                    </c>
    </rc>
   </set>
  </array>
 </atominfo>
 <structure name="initialpos">
  <crystal>
   <varray name="basis">
    <v>        5.47000000       5.47000000       0.00000000 </v>
    <v>        0.00000000       5.47000000       5.47000000 </v>
    <v>        5.47000000       0.00000000       5.47000000 </v>
   </varray>
   <i name="volume">      327.33464600 </i>
   <varray name="rec_basis">
    <v>        0.09140768       0.09140768      -0.09140768 </v>
    <v>       -0.09140768       0.09140768       0.09140768 </v>
    <v>        0.09140768      -0.09140768       0.09140768 </v>
   </varray>
  </crystal>
  <varray name="positions">
   <v>       -0.00023626      -0.00023626      -0.00023626 </v>
   <v>        0.12553458       0.12553458       0.12553458 </v>
   <v>       -0.00243023      -0.00243023       0.50190031 </v>
   <v>        0.12548959       0.12548959       0.62242842 </v>
   <v>       -0.00243023       0.50190031      -0.00243023 </v>
   <v>        0.12548959       0.62242842       0.12548959 </v>
   <v>       -0.00240530       0.50186329       0.50186329 </v>
   <v>        0.13859869       0.62010017       0.62010017 </v>
   <v>        0.50190031      -0.00243023      -0.00243023 </v>
   <v>        0.62242842       0.12548959       0.12548959 </v>
   <v>        0.50186329      -0.00240530       0.50186329 </v>
   <v>        0.62010017       0.13859869       0.62010017 </v>
   <v>        0.50186329       0.50186329      -0.00240530 </v>
   <v>        0.62010017       0.62010017       0.13859869 </v>
   <v>        0.62015851       0.62015851       0.62015851 </v>
  </varray>
 </structure>
 <calculation>
  <scstep>
   <energy>
    <i name="e_fr_energy">          -78.32712625 </i>
    <i name="e_wo_entrp">          -78.32712625 </i>
    <i name="e_0_energy">          -78.32712625 </i>
   </energy>
  </scstep>
  <structure>
   <crystal>
    <varray name="basis">
     <v>        5.47000000       5.47000000       0.00000000 </v>
     <v>        0.00000000       5.47000000       5.47000000 </v>
     <v>        5.47000000       0.00000000       5.47000000 </v>
    </varray>
    <i name="volume">      327.33464600 </i>
    <varray name="rec_basis">
     <v>        0.09140768       0.09140768      -0.09140768 </v>
     <v>       -0.09140768       0.09140768       0.09140768 </v>
     <v>        0.09140768      -0.09140768       0.09140768 </v>
    </varray>
   </crystal>
   <varray name="positions">
    <v>       -0.00023626      -0.00023626      -0.00023626 </v>
    <v>        0.12553458       0.12553458       0.12553458 </v>
    <v>       -0.00243023      -0.00243023       0.50190031 </v>
    <v>        0.12548959       0.12548959       0.62242842 </v>
    <v>       -0.00243023       0.50190031      -0.00243023 </v>
    <v>        0.12548959       0.62242842       0.12548959 </v>
    <v>       -0.00240530       0.50186329       0.50186329 </v>
    <v>        0.13859869       0.62010017       0.62010017 </v>
    <v>        0.50190031      -0.00243023      -0.00243023 </v>
    <v>        0.62242842       0.12548959       0.12548959 </v>
    <v>        0.50186329      -0.00240530       0.50186329 </v>
    <v>        0.62010017       0.13859869       0.62010017 </v>
    <v>        0.50186329       0.50186329      -0.00240530 </v>
    <v>        0.62010017       0.62010017       0.13859869 </v>
    <v>        0.62015851       0.62015851       0.62015851 </v>
   </varray>
  </structure>
  <varray name="forces">
   <v>       -0.00146372      -0.00146372      -0.00146372 </v>
   <v>        0.04594685       0.04594685       0.04594685 </v>
   <v>        0.00002669      -0.03277741       0.00002669 </v>
   <v>       -0.04624384       0.04711008      -0.04624384 </v>
   <v>       -0.03277741       0.00002669       0.00002669 </v>
   <v>        0.04711008      -0.04624384      -0.04624384 </v>
   <v>        0.00106928       0.00106928       0.03352818 </v>
   <v>        0.08644339       0.08644339      -0.08668088 </v>
   <v>        0.00002669       0.00002669      -0.03277741 </v>
   <v>       -0.04624384      -0.04624384       0.04711008 </v>
   <v>        0.03352818       0.00106928       0.00106928 </v>
   <v>       -0.08668088       0.08644339       0.08644339 </v>
   <v>        0.00106928       0.03352818       0.00106928 </v>
   <v>        0.08644339      -0.08668088       0.08644339 </v>
   <v>       -0.08825415      -0.08825415      -0.08825415 </v>
  </varray>
  <varray name="stress">
   <v>      -22.33405050       0.00429875       0.00429875 </v>
   <v>        0.00429875     -22.33405050       0.00429875 </v>
   <v>        0.00429875       0.00429875     -22.33405050 </v>
  </varray>
  <energy>
   <i name="e_fr_energy">          -78.32712625 </i>
   <i name="e_wo_entrp">          -78.32712625 </i>
   <i name="e_0_energy">          -78.32712625 </i>
  </energy>
 </calculation>
 <structure name="finalpos">
  <crystal>
   <varray name="basis">
    <v>        5.47000000       5.47000000       0.00000000 </v>
    <v>        0.00000000       5.47000000       5.47000000 </v>
    <v>        5.47000000       0.00000000       5.47000000 </v>
   </varray>
   <i name="volume">      327.33464600 </i>
   <varray name="rec_basis">
    <v>        0.09140768       0.09140768      -0.09140768 </v>
    <v>       -0.09140768       0.09140768       0.09140768 </v>
    <v>        0.09140768      -0.09140768       0.09140768 </v>
   </varray>
  </crystal>
  <varray name="positions">
   <v>       -0.00023626      -0.00023626      -0.00023626 </v>
   <v>        0.12553458       0.12553458       0.12553458 </v>
   <v>       -0.00243023      -0.00243023       0.50190031 </v>
   <v>        0.12548959       0.12548959       0.62242842 </v>
   <v>       -0.00243023       0.50190031      -0.00243023 </v>
   <v>        0.12548959       0.62242842       0.12548959 </v>
   <v>       -0.00240530       0.50186329       0.50186329 </v>
   <v>        0.13859869       0.62010017       0.62010017 </v>
   <v>        0.50190031      -0.00243023      -0.00243023 </v>
   <v>        0.62242842       0.12548959       0.12548959 </v>
   <v>        0.50186329      -0.00240530       0.50186329 </v>
   <v>        0.62010017       0.13859869       0.62010017 </v>
   <v>        0.50186329       0.50186329      -0.00240530 </v>
   <v>        0.62010017       0.62010017       0.13859869 </v>
   <v>        0.62015851       0.62015851       0.62015851 </v>
  </varray>
 </structure>
</modeling>