<?xml version='1.0' encoding='utf-8'?>
<modeling>
 <generator>
  <i name="program" type="string">vasp </i>
  <i name="version" type="string">mace-ase  </i>
  <i name="platform" type="string">mace-ase</i>
  <i name="date" type="string">2026 04 13</i>
  <i name="time" type="string">02:57:59</i>
 </generator>
 <incar>
  <i name="SYSTEM" type="string">Si</i>
  <i name="NSW" type="int">   100</i>
  <i name="EDIFFG">      -0.01000000</i>
  <i name="IBRION" type="int">   1</i>
  <i name="POTIM">      0.80000000</i>
  <i name="ISIF" type="int">   2</i>
  <i name="IMAGES" type="int">   4</i>
  <i name="SPRING" type="int">   -5</i>
  <i name="LCLIMB" type="logical"> T  </i>
 </incar>
 <parameters>
  <separator name="electronic">
   <i type="int" name="NELM">   60</i>
   <i type="logical" name="LCHIMAG"> F  </i>
   <i name="EDIFF">      0.00010000</i>
  </separator>
  <separator name="ionic">
   <i type="int" name="NSW">   100</i>
   <i type="int" name="IBRION">   1</i>
   <i type="int" name="ISIF">   2</i>
   <i name="EDIFFG">      -0.01000000</i>
   <i type="int" name="LORBIT">   0</i>
  </separator>
 </parameters>
 <atominfo>
  <atoms>     15 </atoms>
  <types>      1 </types>
  <array name="atoms">
   <dimension dim="1">ion</dimension>
   <field type="string">element</field>
   <field type="int">atomtype</field>
   <set>
    <rc>
     <c>Si</c>
     <c>   1</c>
    </rc>
    <rc>
     <c>Si</c>
     <c>   1</c>
    </rc>
    <rc>
     <c>Si</c>
     <c>   1</c>
    </rc>
    <rc>
     <c>Si</c>
     <c>   1</c>
    </rc>
    <rc>
     <c>Si</c>
     <c>   1</c>
    </rc>
    <rc>
     <c>Si</c>
     <c>   1</c>
    </rc>
    <rc>
     <c>Si</c>
     <c>   1</c>
    </rc>
    <rc>
     <c>Si</c>
     <c>   1</c>
    </rc>
    <rc>
     <c>Si</c>
     <c>   1</c>
    </rc>
    <rc>
     <c>Si</c>
     <c>   1</c>
    </rc>
    <rc>
     <c>Si</c>
     <c>   1</c>
    </rc>
    <rc>
     <c>Si</c>
     <c>   1</c>
    </rc>
    <rc>
     <c>Si</c>
     <c>   1</c>
    </rc>
    <rc>
     <c>Si</c>
     <c>   1</c>
    </rc>
    <rc>
     <c>Si</c>
     <c>   1</c>
    </rc>
   </set>
  </array>
  <array name="atomtypes">
   <dimension dim="1">type</dimension>
   <field type="int">atomspertype</field>
   <field type="string">element</field>
   <field>mass</field>
   <field>valence</field>
   <field type="string">pseudopotential</field>
   <set>
    <rc>
     <c>     15</c>
     <c>Si</c>
     <c>       28.08500000</c>
     <c>       0.00000000</c>
     <c>  PAW_PBE Si (MACE)                    </c>
    </rc>
   </set>
  </array>
 </atominfo>
 <structure name="initialpos">
  <crystal>
   <varray name="basis">
    <v>        5.47000000       5.47000000       0.00000000 </v>
    <v>        0.00000000       5.47000000       5.47000000 </v>
    <v>        5.47000000       0.00000000       5.47000000 </v>
   </varray>
   <i name="volume">      327.33464600 </i>
   <varray name="rec_basis">
    <v>        0.09140768       0.09140768      -0.09140768 </v>
    <v>       -0.09140768       0.09140768       0.09140768 </v>
    <v>        0.09140768      -0.09140768       0.09140768 </v>
   </varray>
  </crystal>
  <varray name="positions">
   <v>       -0.00040709      -0.00040709      -0.00040709 </v>
   <v>        0.12560145       0.12560145       0.12560145 </v>
   <v>       -0.00197420      -0.00197420       0.50315943 </v>
   <v>        0.12623065       0.12623065       0.62173301 </v>
   <v>       -0.00197420       0.50315943      -0.00197420 </v>
   <v>        0.12623065       0.62173301       0.12623065 </v>
   <v>       -0.02116226       0.50301575       0.50301575 </v>
   <v>        0.13767637       0.62096795       0.62096795 </v>
   <v>        0.50315943      -0.00197420      -0.00197420 </v>
   <v>        0.62173301       0.12623065       0.12623065 </v>
   <v>        0.50301575      -0.02116226       0.50301575 </v>
   <v>        0.62096795       0.13767637       0.62096795 </v>
   <v>        0.50301575       0.50301575      -0.02116226 </v>
   <v>        0.62096795       0.62096795       0.13767637 </v>
   <v>        0.58054867       0.58054867       0.58054867 </v>
  </varray>
 </structure>
 <calculation>
  <scstep>
   <energy>
    <i name="e_fr_energy">          -77.80516601 </i>
    <i name="e_wo_entrp">          -77.80516601 </i>
    <i name="e_0_energy">          -77.80516601 </i>
   </energy>
  </scstep>
  <structure>
   <crystal>
    <varray name="basis">
     <v>        5.47000000       5.47000000       0.00000000 </v>
     <v>        0.00000000       5.47000000       5.47000000 </v>
     <v>        5.47000000       0.00000000       5.47000000 </v>
    </varray>
    <i name="volume">      327.33464600 </i>
    <varray name="rec_basis">
     <v>        0.09140768       0.09140768      -0.09140768 </v>
     <v>       -0.09140768       0.09140768       0.09140768 </v>
     <v>        0.09140768      -0.09140768       0.09140768 </v>
    </varray>
   </crystal>
   <varray name="positions">
    <v>       -0.00040709      -0.00040709      -0.00040709 </v>
    <v>        0.12560145       0.12560145       0.12560145 </v>
    <v>       -0.00197420      -0.00197420       0.50315943 </v>
    <v>        0.12623065       0.12623065       0.62173301 </v>
    <v>       -0.00197420       0.50315943      -0.00197420 </v>
    <v>        0.12623065       0.62173301       0.12623065 </v>
    <v>       -0.02116226       0.50301575       0.50301575 </v>
    <v>        0.13767637       0.62096795       0.62096795 </v>
    <v>        0.50315943      -0.00197420      -0.00197420 </v>
    <v>        0.62173301       0.12623065       0.12623065 </v>
    <v>        0.50301575      -0.02116226       0.50301575 </v>
    <v>        0.62096795       0.13767637       0.62096795 </v>
    <v>        0.50301575       0.50301575      -0.02116226 </v>
    <v>        0.62096795       0.62096795       0.13767637 </v>
    <v>        0.58054867       0.58054867       0.58054867 </v>
   </varray>
  </structure>
  <varray name="forces">
   <v>       -0.03101899      -0.03101899      -0.03101899 </v>
   <v>        0.01535330       0.01535330       0.01535330 </v>
   <v>       -0.01146828      -0.01675027      -0.01146828 </v>
   <v>       -0.03634355      -0.02140213      -0.03634355 </v>
   <v>       -0.01675027      -0.01146828      -0.01146828 </v>
   <v>       -0.02140213      -0.03634355      -0.03634355 </v>
   <v>       -0.04985085      -0.04985085      -0.04358222 </v>
   <v>       -0.15142845      -0.15142845      -0.08071230 </v>
   <v>       -0.01146828      -0.01146828      -0.01675027 </v>
   <v>       -0.03634355      -0.03634355      -0.02140213 </v>
   <v>       -0.04358222      -0.04985085      -0.04985085 </v>
   <v>       -0.08071230      -0.15142845      -0.15142845 </v>
   <v>       -0.04985085      -0.04358222      -0.04985085 </v>
   <v>       -0.15142845      -0.08071230      -0.15142845 </v>
   <v>        0.67629485       0.67629485       0.67629485 </v>
  </varray>
  <varray name="stress">
   <v>      -42.87260328      -9.08631084      -9.08631084 </v>
   <v>       -9.08631084     -42.87260328      -9.08631084 </v>
   <v>       -9.08631084      -9.08631084     -42.87260328 </v>
  </varray>
  <energy>
   <i name="e_fr_energy">          -77.80516601 </i>
   <i name="e_wo_entrp">          -77.80516601 </i>
   <i name="e_0_energy">          -77.80516601 </i>
  </energy>
 </calculation>
 <calculation>
  <scstep>
   <energy>
    <i name="e_fr_energy">          -77.80571869 </i>
    <i name="e_wo_entrp">          -77.80571869 </i>
    <i name="e_0_energy">          -77.80571869 </i>
   </energy>
  </scstep>
  <structure>
   <crystal>
    <varray name="basis">
     <v>        5.47000000       5.47000000       0.00000000 </v>
     <v>        0.00000000       5.47000000       5.47000000 </v>
     <v>        5.47000000       0.00000000       5.47000000 </v>
    </varray>
    <i name="volume">      327.33464600 </i>
    <varray name="rec_basis">
     <v>        0.09140768       0.09140768      -0.09140768 </v>
     <v>       -0.09140768       0.09140768       0.09140768 </v>
     <v>        0.09140768      -0.09140768       0.09140768 </v>
    </varray>
   </crystal>
   <varray name="positions">
    <v>       -0.00054642      -0.00054642      -0.00054642 </v>
    <v>        0.12575129       0.12575129       0.12575129 </v>
    <v>       -0.00187644      -0.00187644       0.50321745 </v>
    <v>        0.12626836       0.12626836       0.62150722 </v>
    <v>       -0.00187644       0.50321745      -0.00187644 </v>
    <v>        0.12626836       0.62150722       0.12626836 </v>
    <v>       -0.02089645       0.50295174       0.50295174 </v>
    <v>        0.13791171       0.62071858       0.62071858 </v>
    <v>        0.50321745      -0.00187644      -0.00187644 </v>
    <v>        0.62150722       0.12626836       0.12626836 </v>
    <v>        0.50295174      -0.02089645       0.50295174 </v>
    <v>        0.62071858       0.13791171       0.62071858 </v>
    <v>        0.50295174       0.50295174      -0.02089645 </v>
    <v>        0.62071858       0.62071858       0.13791171 </v>
    <v>        0.58055299       0.58055299       0.58055299 </v>
   </varray>
  </structure>
  <varray name="forces">
   <v>       -0.01135668      -0.01135668      -0.01135668 </v>
   <v>       -0.00484057      -0.00484057      -0.00484057 </v>
   <v>       -0.02516274      -0.03657807      -0.02516274 </v>
   <v>       -0.02305556      -0.02062564      -0.02305556 </v>
   <v>       -0.03657807      -0.02516274      -0.02516274 </v>
   <v>       -0.02062564      -0.02305556      -0.02305556 </v>
   <v>       -0.05982929      -0.05982929      -0.04262545 </v>
   <v>       -0.14583484      -0.14583484      -0.05618819 </v>
   <v>       -0.02516274      -0.02516274      -0.03657807 </v>
   <v>       -0.02305556      -0.02305556      -0.02062564 </v>
   <v>       -0.04262545      -0.05982929      -0.05982929 </v>
   <v>       -0.05618819      -0.14583484      -0.14583484 </v>
   <v>       -0.05982929      -0.04262545      -0.05982929 </v>
   <v>       -0.14583484      -0.05618819      -0.14583484 </v>
   <v>        0.67997945       0.67997945       0.67997945 </v>
  </varray>
  <varray name="stress">
   <v>      -42.94899664      -8.90302981      -8.90302981 </v>
   <v>       -8.90302981     -42.94899664      -8.90302981 </v>
   <v>       -8.90302981      -8.90302981     -42.94899664 </v>
  </varray>
  <energy>
   <i name="e_fr_energy">          -77.80571869 </i>
   <i name="e_wo_entrp">          -77.80571869 </i>
   <i name="e_0_energy">          -77.80571869 </i>
  </energy>
 </calculation>
 <calculation>
  <scstep>
   <energy>
    <i name="e_fr_energy">          -77.80720610 </i>
    <i name="e_wo_entrp">          -77.80720610 </i>
    <i name="e_0_energy">          -77.80720610 </i>
   </energy>
  </scstep>
  <structure>
   <crystal>
    <varray name="basis">
     <v>        5.47000000       5.47000000       0.00000000 </v>
     <v>        0.00000000       5.47000000       5.47000000 </v>
     <v>        5.47000000       0.00000000       5.47000000 </v>
    </varray>
    <i name="volume">      327.33464600 </i>
    <varray name="rec_basis">
     <v>        0.09140768       0.09140768      -0.09140768 </v>
     <v>       -0.09140768       0.09140768       0.09140768 </v>
     <v>        0.09140768      -0.09140768       0.09140768 </v>
    </varray>
   </crystal>
   <varray name="positions">
    <v>       -0.00059625      -0.00059625      -0.00059625 </v>
    <v>        0.12582559       0.12582559       0.12582559 </v>
    <v>       -0.00195500      -0.00195500       0.50327532 </v>
    <v>        0.12632390       0.12632390       0.62140871 </v>
    <v>       -0.00195500       0.50327532      -0.00195500 </v>
    <v>        0.12632390       0.62140871       0.12632390 </v>
    <v>       -0.02050063       0.50289872       0.50289872 </v>
    <v>        0.13795149       0.62055112       0.62055112 </v>
    <v>        0.50327532      -0.00195500      -0.00195500 </v>
    <v>        0.62140871       0.12632390       0.12632390 </v>
    <v>        0.50289872      -0.02050063       0.50289872 </v>
    <v>        0.62055112       0.13795149       0.62055112 </v>
    <v>        0.50289872       0.50289872      -0.02050063 </v>
    <v>        0.62055112       0.62055112       0.13795149 </v>
    <v>        0.58060724       0.58060724       0.58060724 </v>
   </varray>
  </structure>
  <varray name="forces">
   <v>       -0.00209825      -0.00209825      -0.00209825 </v>
   <v>       -0.01534448      -0.01534448      -0.01534448 </v>
   <v>       -0.02593540      -0.03275749      -0.02593540 </v>
   <v>       -0.02261634      -0.02937123      -0.02261634 </v>
   <v>       -0.03275749      -0.02593540      -0.02593540 </v>
   <v>       -0.02937123      -0.02261634      -0.02261634 </v>
   <v>       -0.07356299      -0.07356299      -0.04055001 </v>
   <v>       -0.13893866      -0.13893866      -0.04322351 </v>
   <v>       -0.02593540      -0.02593540      -0.03275749 </v>
   <v>       -0.02261634      -0.02261634      -0.02937123 </v>
   <v>       -0.04055001      -0.07356299      -0.07356299 </v>
   <v>       -0.04322351      -0.13893866      -0.13893866 </v>
   <v>       -0.07356299      -0.04055001      -0.07356299 </v>
   <v>       -0.13893866      -0.04322351      -0.13893866 </v>
   <v>        0.68545175       0.68545175       0.68545175 </v>
  </varray>
  <varray name="stress">
   <v>      -42.94133112      -8.89689542      -8.89689542 </v>
   <v>       -8.89689542     -42.94133112      -8.89689542 </v>
   <v>       -8.89689542      -8.89689542     -42.94133112 </v>
  </varray>
  <energy>
   <i name="e_fr_energy">          -77.80720610 </i>
   <i name="e_wo_entrp">          -77.80720610 </i>
   <i name="e_0_energy">          -77.80720610 </i>
  </energy>
 </calculation>
 <calculation>
  <scstep>
   <energy>
    <i name="e_fr_energy">          -77.80716736 </i>
    <i name="e_wo_entrp">          -77.80716736 </i>
    <i name="e_0_energy">          -77.80716736 </i>
   </energy>
  </scstep>
  <structure>
   <crystal>
    <varray name="basis">
     <v>        5.47000000       5.47000000       0.00000000 </v>
     <v>        0.00000000       5.47000000       5.47000000 </v>
     <v>        5.47000000       0.00000000       5.47000000 </v>
    </varray>
    <i name="volume">      327.33464600 </i>
    <varray name="rec_basis">
     <v>        0.09140768       0.09140768      -0.09140768 </v>
     <v>       -0.09140768       0.09140768       0.09140768 </v>
     <v>        0.09140768      -0.09140768       0.09140768 </v>
    </varray>
   </crystal>
   <varray name="positions">
    <v>       -0.00056799      -0.00056799      -0.00056799 </v>
    <v>        0.12580420       0.12580420       0.12580420 </v>
    <v>       -0.00196582      -0.00196582       0.50327401 </v>
    <v>        0.12631138       0.12631138       0.62143296 </v>
    <v>       -0.00196582       0.50327401      -0.00196582 </v>
    <v>        0.12631138       0.62143296       0.12631138 </v>
    <v>       -0.02046589       0.50290370       0.50290370 </v>
    <v>        0.13786148       0.62058492       0.62058492 </v>
    <v>        0.50327401      -0.00196582      -0.00196582 </v>
    <v>        0.62143296       0.12631138       0.12631138 </v>
    <v>        0.50290370      -0.02046589       0.50290370 </v>
    <v>        0.62058492       0.13786148       0.62058492 </v>
    <v>        0.50290370       0.50290370      -0.02046589 </v>
    <v>        0.62058492       0.62058492       0.13786148 </v>
    <v>        0.58059965       0.58059965       0.58059965 </v>
   </varray>
  </structure>
  <varray name="forces">
   <v>       -0.00625895      -0.00625895      -0.00625895 </v>
   <v>       -0.01150784      -0.01150784      -0.01150784 </v>
   <v>       -0.02563993      -0.03134065      -0.02563993 </v>
   <v>       -0.02269565      -0.02797921      -0.02269565 </v>
   <v>       -0.03134065      -0.02563993      -0.02563993 </v>
   <v>       -0.02797921      -0.02269565      -0.02269565 </v>
   <v>       -0.07546399      -0.07546399      -0.04121512 </v>
   <v>       -0.13741149      -0.13741149      -0.04536349 </v>
   <v>       -0.02563993      -0.02563993      -0.03134065 </v>
   <v>       -0.02269565      -0.02269565      -0.02797921 </v>
   <v>       -0.04121512      -0.07546399      -0.07546399 </v>
   <v>       -0.04536349      -0.13741149      -0.13741149 </v>
   <v>       -0.07546399      -0.04121512      -0.07546399 </v>
   <v>       -0.13741149      -0.04536349      -0.13741149 </v>
   <v>        0.68608737       0.68608737       0.68608737 </v>
  </varray>
  <varray name="stress">
   <v>      -42.90894075      -8.89466877      -8.89466877 </v>
   <v>       -8.89466877     -42.90894075      -8.89466877 </v>
   <v>       -8.89466877      -8.89466877     -42.90894075 </v>
  </varray>
  <energy>
   <i name="e_fr_energy">          -77.80716736 </i>
   <i name="e_wo_entrp">          -77.80716736 </i>
   <i name="e_0_energy">          -77.80716736 </i>
  </energy>
 </calculation>
 <structure name="finalpos">
  <crystal>
   <varray name="basis">
    <v>        5.47000000       5.47000000       0.00000000 </v>
    <v>        0.00000000       5.47000000       5.47000000 </v>
    <v>        5.47000000       0.00000000       5.47000000 </v>
   </varray>
   <i name="volume">      327.33464600 </i>
   <varray name="rec_basis">
    <v>        0.09140768       0.09140768      -0.09140768 </v>
    <v>       -0.09140768       0.09140768       0.09140768 </v>
    <v>        0.09140768      -0.09140768       0.09140768 </v>
   </varray>
  </crystal>
  <varray name="positions">
   <v>       -0.00056799      -0.00056799      -0.00056799 </v>
   <v>        0.12580420       0.12580420       0.12580420 </v>
   <v>       -0.00196582      -0.00196582       0.50327401 </v>
   <v>        0.12631138       0.12631138       0.62143296 </v>
   <v>       -0.00196582       0.50327401      -0.00196582 </v>
   <v>        0.12631138       0.62143296       0.12631138 </v>
   <v>       -0.02046589       0.50290370       0.50290370 </v>
   <v>        0.13786148       0.62058492       0.62058492 </v>
   <v>        0.50327401      -0.00196582      -0.00196582 </v>
   <v>        0.62143296       0.12631138       0.12631138 </v>
   <v>        0.50290370      -0.02046589       0.50290370 </v>
   <v>        0.62058492       0.13786148       0.62058492 </v>
   <v>        0.50290370       0.50290370      -0.02046589 </v>
   <v>        0.62058492       0.62058492       0.13786148 </v>
   <v>        0.58059965       0.58059965       0.58059965 </v>
  </varray>
 </structure>
</modeling>