<?xml version='1.0' encoding='utf-8'?>
<modeling>
 <generator>
  <i name="program" type="string">vasp </i>
  <i name="version" type="string">mace-ase  </i>
  <i name="platform" type="string">mace-ase</i>
  <i name="date" type="string">2026 04 13</i>
  <i name="time" type="string">02:59:38</i>
 </generator>
 <incar>
  <i name="SYSTEM" type="string">Pt</i>
  <i name="NSW" type="int">   100</i>
  <i name="EDIFFG">      -0.01000000</i>
  <i name="IBRION" type="int">   1</i>
  <i name="POTIM">      0.80000000</i>
  <i name="ISIF" type="int">   2</i>
  <i name="IMAGES" type="int">   3</i>
  <i name="SPRING" type="int">   -5</i>
 </incar>
 <parameters>
  <separator name="electronic">
   <i type="int" name="NELM">   60</i>
   <i type="logical" name="LCHIMAG"> F  </i>
   <i name="EDIFF">      0.00010000</i>
  </separator>
  <separator name="ionic">
   <i type="int" name="NSW">   100</i>
   <i type="int" name="IBRION">   1</i>
   <i type="int" name="ISIF">   2</i>
   <i name="EDIFFG">      -0.01000000</i>
   <i type="int" name="LORBIT">   0</i>
  </separator>
 </parameters>
 <atominfo>
  <atoms>     17 </atoms>
  <types>      1 </types>
  <array name="atoms">
   <dimension dim="1">ion</dimension>
   <field type="string">element</field>
   <field type="int">atomtype</field>
   <set>
    <rc>
     <c>Pt</c>
     <c>   1</c>
    </rc>
    <rc>
     <c>Pt</c>
     <c>   1</c>
    </rc>
    <rc>
     <c>Pt</c>
     <c>   1</c>
    </rc>
    <rc>
     <c>Pt</c>
     <c>   1</c>
    </rc>
    <rc>
     <c>Pt</c>
     <c>   1</c>
    </rc>
    <rc>
     <c>Pt</c>
     <c>   1</c>
    </rc>
    <rc>
     <c>Pt</c>
     <c>   1</c>
    </rc>
    <rc>
     <c>Pt</c>
     <c>   1</c>
    </rc>
    <rc>
     <c>Pt</c>
     <c>   1</c>
    </rc>
    <rc>
     <c>Pt</c>
     <c>   1</c>
    </rc>
    <rc>
     <c>Pt</c>
     <c>   1</c>
    </rc>
    <rc>
     <c>Pt</c>
     <c>   1</c>
    </rc>
    <rc>
     <c>Pt</c>
     <c>   1</c>
    </rc>
    <rc>
     <c>Pt</c>
     <c>   1</c>
    </rc>
    <rc>
     <c>Pt</c>
     <c>   1</c>
    </rc>
    <rc>
     <c>Pt</c>
     <c>   1</c>
    </rc>
    <rc>
     <c>Pt</c>
     <c>   1</c>
    </rc>
   </set>
  </array>
  <array name="atomtypes">
   <dimension dim="1">type</dimension>
   <field type="int">atomspertype</field>
   <field type="string">element</field>
   <field>mass</field>
   <field>valence</field>
   <field type="string">pseudopotential</field>
   <set>
    <rc>
     <c>     17</c>
     <c>Pt</c>
     <c>      195.08400000</c>
     <c>       0.00000000</c>
     <c>  PAW_PBE Pt (MACE)                    </c>
    </rc>
   </set>
  </array>
 </atominfo>
 <structure name="initialpos">
  <crystal>
   <varray name="basis">
    <v>        5.62024000       0.00000000       0.00000000 </v>
    <v>        0.00000000       5.62024000       0.00000000 </v>
    <v>        0.00000000       0.00000000      16.86072000 </v>
   </varray>
   <i name="volume">      532.58120922 </i>
   <varray name="rec_basis">
    <v>        0.17792834       0.00000000       0.00000000 </v>
    <v>        0.00000000       0.17792834       0.00000000 </v>
    <v>        0.00000000       0.00000000       0.05930945 </v>
   </varray>
  </crystal>
  <varray name="positions">
   <v>        0.00288330      -0.00030993      -0.00544091 </v>
   <v>        0.00267505       0.49732495      -0.00546018 </v>
   <v>        0.50025312      -0.00025312      -0.00559467 </v>
   <v>        0.50030993       0.49711670      -0.00544091 </v>
   <v>        0.25363956       0.24636044       0.11413383 </v>
   <v>        0.75241782       0.24600225       0.11470124 </v>
   <v>        0.25399775       0.74758218       0.11470124 </v>
   <v>        0.75165972       0.74834028       0.11005087 </v>
   <v>        0.00829776      -0.00859543       0.23560000 </v>
   <v>        0.01095969       0.48904031       0.23317559 </v>
   <v>        0.50150384      -0.00150384       0.23657425 </v>
   <v>        0.50859543       0.49170224       0.23560000 </v>
   <v>        0.35041731       0.14958269       0.39592778 </v>
   <v>        0.77373498       0.23310546       0.34974565 </v>
   <v>        0.26689454       0.72626502       0.34974565 </v>
   <v>        0.75540676       0.74459324       0.35865678 </v>
   <v>        0.04878418       0.45121582       0.44192206 </v>
  </varray>
 </structure>
 <calculation>
  <scstep>
   <energy>
    <i name="e_fr_energy">          -94.05894683 </i>
    <i name="e_wo_entrp">          -94.05894683 </i>
    <i name="e_0_energy">          -94.05894683 </i>
   </energy>
  </scstep>
  <structure>
   <crystal>
    <varray name="basis">
     <v>        5.62024000       0.00000000       0.00000000 </v>
     <v>        0.00000000       5.62024000       0.00000000 </v>
     <v>        0.00000000       0.00000000      16.86072000 </v>
    </varray>
    <i name="volume">      532.58120922 </i>
    <varray name="rec_basis">
     <v>        0.17792834       0.00000000       0.00000000 </v>
     <v>        0.00000000       0.17792834       0.00000000 </v>
     <v>        0.00000000       0.00000000       0.05930945 </v>
    </varray>
   </crystal>
   <varray name="positions">
    <v>        0.00288330      -0.00030993      -0.00544091 </v>
    <v>        0.00267505       0.49732495      -0.00546018 </v>
    <v>        0.50025312      -0.00025312      -0.00559467 </v>
    <v>        0.50030993       0.49711670      -0.00544091 </v>
    <v>        0.25363956       0.24636044       0.11413383 </v>
    <v>        0.75241782       0.24600225       0.11470124 </v>
    <v>        0.25399775       0.74758218       0.11470124 </v>
    <v>        0.75165972       0.74834028       0.11005087 </v>
    <v>        0.00829776      -0.00859543       0.23560000 </v>
    <v>        0.01095969       0.48904031       0.23317559 </v>
    <v>        0.50150384      -0.00150384       0.23657425 </v>
    <v>        0.50859543       0.49170224       0.23560000 </v>
    <v>        0.35041731       0.14958269       0.39592778 </v>
    <v>        0.77373498       0.23310546       0.34974565 </v>
    <v>        0.26689454       0.72626502       0.34974565 </v>
    <v>        0.75540676       0.74459324       0.35865678 </v>
    <v>        0.04878418       0.45121582       0.44192206 </v>
   </varray>
  </structure>
  <varray name="forces">
   <v>        0.02986437       0.01043524       0.30173758 </v>
   <v>        0.02186713      -0.02186713       0.32597707 </v>
   <v>       -0.00553717       0.00553717       0.25678587 </v>
   <v>       -0.01043524      -0.02986437       0.30173758 </v>
   <v>        0.01097485      -0.01097485      -0.07084166 </v>
   <v>        0.04416181      -0.02324860       0.00474964 </v>
   <v>        0.02324860      -0.04416181       0.00474964 </v>
   <v>        0.02516065      -0.02516065       0.20845860 </v>
   <v>       -0.05213008      -0.11182903      -0.14655859 </v>
   <v>       -0.03594627       0.03594627       0.05716693 </v>
   <v>        0.11355250      -0.11355250      -0.02649323 </v>
   <v>        0.11182903       0.05213008      -0.14655859 </v>
   <v>       -0.31537936       0.31537936      -0.50817535 </v>
   <v>        0.11792909      -0.06109543      -0.12823797 </v>
   <v>        0.06109543      -0.11792909      -0.12823797 </v>
   <v>        0.02028368      -0.02028368      -0.30809779 </v>
   <v>       -0.16053903       0.16053903       0.00183826 </v>
  </varray>
  <varray name="stress">
   <v>      -42.17005879       8.49013731      -4.15005940 </v>
   <v>        8.49013731     -42.17005879       4.15005940 </v>
   <v>       -4.15005940       4.15005940     -22.98449334 </v>
  </varray>
  <energy>
   <i name="e_fr_energy">          -94.05894683 </i>
   <i name="e_wo_entrp">          -94.05894683 </i>
   <i name="e_0_energy">          -94.05894683 </i>
  </energy>
 </calculation>
 <calculation>
  <scstep>
   <energy>
    <i name="e_fr_energy">          -94.07907717 </i>
    <i name="e_wo_entrp">          -94.07907717 </i>
    <i name="e_0_energy">          -94.07907717 </i>
   </energy>
  </scstep>
  <structure>
   <crystal>
    <varray name="basis">
     <v>        5.62024000       0.00000000       0.00000000 </v>
     <v>        0.00000000       5.62024000       0.00000000 </v>
     <v>        0.00000000       0.00000000      16.86072000 </v>
    </varray>
    <i name="volume">      532.58120922 </i>
    <varray name="rec_basis">
     <v>        0.17792834       0.00000000       0.00000000 </v>
     <v>        0.00000000       0.17792834       0.00000000 </v>
     <v>        0.00000000       0.00000000       0.05930945 </v>
    </varray>
   </crystal>
   <varray name="positions">
    <v>        0.00301411      -0.00020727      -0.00489218 </v>
    <v>        0.00276555       0.49723445      -0.00486865 </v>
    <v>        0.50018011      -0.00018011      -0.00512975 </v>
    <v>        0.50020727       0.49698589      -0.00489218 </v>
    <v>        0.25360887       0.24639113       0.11398014 </v>
    <v>        0.75260484       0.24597276       0.11469486 </v>
    <v>        0.25402724       0.74739516       0.11469486 </v>
    <v>        0.75175918       0.74824082       0.11040938 </v>
    <v>        0.00772358      -0.00907530       0.23529548 </v>
    <v>        0.01068177       0.48931823       0.23329483 </v>
    <v>        0.50190076      -0.00190076       0.23645084 </v>
    <v>        0.50907530       0.49227642       0.23529548 </v>
    <v>        0.35016496       0.14983504       0.39579293 </v>
    <v>        0.77379674       0.23319304       0.34939939 </v>
    <v>        0.26680696       0.72620326       0.34939939 </v>
    <v>        0.75538323       0.74461677       0.35809818 </v>
    <v>        0.04892440       0.45107560       0.44157527 </v>
   </varray>
  </structure>
  <varray name="forces">
   <v>        0.01680949      -0.00599753       0.25993346 </v>
   <v>        0.00776976      -0.00776976       0.27989501 </v>
   <v>        0.00968848      -0.00968848       0.22523228 </v>
   <v>        0.00599753      -0.01680949       0.25993346 </v>
   <v>        0.01413210      -0.01413210      -0.00147595 </v>
   <v>        0.03728992      -0.02263354       0.02877789 </v>
   <v>        0.02263354      -0.03728992       0.02877789 </v>
   <v>        0.02295216      -0.02295216       0.19213508 </v>
   <v>       -0.00705234      -0.07749901      -0.14183549 </v>
   <v>       -0.00067238       0.00067238       0.02816314 </v>
   <v>        0.06934506      -0.06934506      -0.02882254 </v>
   <v>        0.07749901       0.00705234      -0.14183549 </v>
   <v>       -0.27730189       0.27730189      -0.53361061 </v>
   <v>        0.08860715      -0.07200614      -0.10469551 </v>
   <v>        0.07200614      -0.08860715      -0.10469551 </v>
   <v>        0.02148141      -0.02148141      -0.26662477 </v>
   <v>       -0.18118515       0.18118515       0.02074765 </v>
  </varray>
  <varray name="stress">
   <v>      -40.59304314       8.40850528      -4.17527483 </v>
   <v>        8.40850528     -40.59304314       4.17527483 </v>
   <v>       -4.17527483       4.17527483     -21.05402949 </v>
  </varray>
  <energy>
   <i name="e_fr_energy">          -94.07907717 </i>
   <i name="e_wo_entrp">          -94.07907717 </i>
   <i name="e_0_energy">          -94.07907717 </i>
  </energy>
 </calculation>
 <calculation>
  <scstep>
   <energy>
    <i name="e_fr_energy">          -94.09655845 </i>
    <i name="e_wo_entrp">          -94.09655845 </i>
    <i name="e_0_energy">          -94.09655845 </i>
   </energy>
  </scstep>
  <structure>
   <crystal>
    <varray name="basis">
     <v>        5.62024000       0.00000000       0.00000000 </v>
     <v>        0.00000000       5.62024000       0.00000000 </v>
     <v>        0.00000000       0.00000000      16.86072000 </v>
    </varray>
    <i name="volume">      532.58120922 </i>
    <varray name="rec_basis">
     <v>        0.17792834       0.00000000       0.00000000 </v>
     <v>        0.00000000       0.17792834       0.00000000 </v>
     <v>        0.00000000       0.00000000       0.05930945 </v>
    </varray>
   </crystal>
   <varray name="positions">
    <v>        0.00308125      -0.00019516      -0.00433858 </v>
    <v>        0.00277752       0.49722248      -0.00427561 </v>
    <v>        0.50019598      -0.00019598      -0.00464987 </v>
    <v>        0.50019516       0.49691875      -0.00433858 </v>
    <v>        0.25359496       0.24640504       0.11395264 </v>
    <v>        0.75277405       0.24594258       0.11474154 </v>
    <v>        0.25405742       0.74722595       0.11474154 </v>
    <v>        0.75185880       0.74814120       0.11079561 </v>
    <v>        0.00734550      -0.00941813       0.23494795 </v>
    <v>        0.01056816       0.48943184       0.23335784 </v>
    <v>        0.50209295      -0.00209295       0.23629471 </v>
    <v>        0.50941813       0.49265450       0.23494795 </v>
    <v>        0.35010578       0.14989422       0.39556355 </v>
    <v>        0.77367538       0.23321945       0.34905990 </v>
    <v>        0.26678055       0.72632462       0.34905990 </v>
    <v>        0.75536468       0.74463532       0.35753246 </v>
    <v>        0.04896058       0.45103942       0.44120531 </v>
   </varray>
  </structure>
  <varray name="forces">
   <v>        0.00941975      -0.01594141       0.22186487 </v>
   <v>       -0.00006398       0.00006398       0.23783196 </v>
   <v>        0.01894944      -0.01894944       0.19675263 </v>
   <v>        0.01594141      -0.00941975       0.22186487 </v>
   <v>        0.01740968      -0.01740968       0.03655424 </v>
   <v>        0.03205530      -0.02361523       0.03952419 </v>
   <v>        0.02361523      -0.03205530       0.03952419 </v>
   <v>        0.02032675      -0.02032675       0.17468291 </v>
   <v>        0.02039431      -0.05196635      -0.12157611 </v>
   <v>        0.02250528      -0.02250528       0.01851653 </v>
   <v>        0.04101720      -0.04101720      -0.02411648 </v>
   <v>        0.05196635      -0.02039431      -0.12157611 </v>
   <v>       -0.26787088       0.26787088      -0.53697951 </v>
   <v>        0.08342242      -0.07546509      -0.08864603 </v>
   <v>        0.07546509      -0.08342242      -0.08864603 </v>
   <v>        0.02403891      -0.02403891      -0.23242122 </v>
   <v>       -0.18859226       0.18859226       0.02684510 </v>
  </varray>
  <varray name="stress">
   <v>      -38.88254581       8.42788911      -4.19683804 </v>
   <v>        8.42788911     -38.88254581       4.19683804 </v>
   <v>       -4.19683804       4.19683804     -19.03726846 </v>
  </varray>
  <energy>
   <i name="e_fr_energy">          -94.09655845 </i>
   <i name="e_wo_entrp">          -94.09655845 </i>
   <i name="e_0_energy">          -94.09655845 </i>
  </energy>
 </calculation>
 <calculation>
  <scstep>
   <energy>
    <i name="e_fr_energy">          -94.11167777 </i>
    <i name="e_wo_entrp">          -94.11167777 </i>
    <i name="e_0_energy">          -94.11167777 </i>
   </energy>
  </scstep>
  <structure>
   <crystal>
    <varray name="basis">
     <v>        5.62024000       0.00000000       0.00000000 </v>
     <v>        0.00000000       5.62024000       0.00000000 </v>
     <v>        0.00000000       0.00000000      16.86072000 </v>
    </varray>
    <i name="volume">      532.58120922 </i>
    <varray name="rec_basis">
     <v>        0.17792834       0.00000000       0.00000000 </v>
     <v>        0.00000000       0.17792834       0.00000000 </v>
     <v>        0.00000000       0.00000000       0.05930945 </v>
    </varray>
   </crystal>
   <varray name="positions">
    <v>        0.00310089      -0.00025534      -0.00380506 </v>
    <v>        0.00273048       0.49726952      -0.00370886 </v>
    <v>        0.50028436      -0.00028436      -0.00417378 </v>
    <v>        0.50025534       0.49689911      -0.00380506 </v>
    <v>        0.25360421       0.24639579       0.11401699 </v>
    <v>        0.75292099       0.24590205       0.11482150 </v>
    <v>        0.25409795       0.74707901       0.11482150 </v>
    <v>        0.75194874       0.74805126       0.11118932 </v>
    <v>        0.00712240      -0.00961615       0.23460673 </v>
    <v>        0.01059127       0.48940873       0.23339324 </v>
    <v>        0.50211722      -0.00211722       0.23612444 </v>
    <v>        0.50961615       0.49287760       0.23460673 </v>
    <v>        0.35009700       0.14990300       0.39528682 </v>
    <v>        0.77350156       0.23322313       0.34872662 </v>
    <v>        0.26677687       0.72649844       0.34872662 </v>
    <v>        0.75536327       0.74463673       0.35697493 </v>
    <v>        0.04896321       0.45103679       0.44079556 </v>
   </varray>
  </structure>
  <varray name="forces">
   <v>        0.00674096      -0.02046957       0.18813685 </v>
   <v>       -0.00272643       0.00272643       0.20103753 </v>
   <v>        0.02317985      -0.02317985       0.17081720 </v>
   <v>        0.02046957      -0.00674096       0.18813685 </v>
   <v>        0.01958618      -0.01958618       0.05076608 </v>
   <v>        0.02888716      -0.02422736       0.04178762 </v>
   <v>        0.02422736      -0.02888716       0.04178762 </v>
   <v>        0.01866651      -0.01866651       0.15850575 </v>
   <v>        0.03553467      -0.03616326      -0.09474750 </v>
   <v>        0.03515079      -0.03515079       0.01760949 </v>
   <v>        0.02529065      -0.02529065      -0.01324718 </v>
   <v>        0.03616326      -0.03553467      -0.09474750 </v>
   <v>       -0.26671479       0.26671479      -0.53271548 </v>
   <v>        0.08368926      -0.07878502      -0.07689073 </v>
   <v>        0.07878502      -0.08368926      -0.07689073 </v>
   <v>        0.02518200      -0.02518200      -0.20463371 </v>
   <v>       -0.19211202       0.19211202       0.03528783 </v>
  </varray>
  <varray name="stress">
   <v>      -37.11627124       8.48216628      -4.22258818 </v>
   <v>        8.48216628     -37.11627124       4.22258818 </v>
   <v>       -4.22258818       4.22258818     -16.99478069 </v>
  </varray>
  <energy>
   <i name="e_fr_energy">          -94.11167777 </i>
   <i name="e_wo_entrp">          -94.11167777 </i>
   <i name="e_0_energy">          -94.11167777 </i>
  </energy>
 </calculation>
 <calculation>
  <scstep>
   <energy>
    <i name="e_fr_energy">          -94.12466771 </i>
    <i name="e_wo_entrp">          -94.12466771 </i>
    <i name="e_0_energy">          -94.12466771 </i>
   </energy>
  </scstep>
  <structure>
   <crystal>
    <varray name="basis">
     <v>        5.62024000       0.00000000       0.00000000 </v>
     <v>        0.00000000       5.62024000       0.00000000 </v>
     <v>        0.00000000       0.00000000      16.86072000 </v>
    </varray>
    <i name="volume">      532.58120922 </i>
    <varray name="rec_basis">
     <v>        0.17792834       0.00000000       0.00000000 </v>
     <v>        0.00000000       0.17792834       0.00000000 </v>
     <v>        0.00000000       0.00000000       0.05930945 </v>
    </varray>
   </crystal>
   <varray name="positions">
    <v>        0.00309891      -0.00035967      -0.00329866 </v>
    <v>        0.00265299       0.49734701      -0.00317520 </v>
    <v>        0.50041989      -0.00041989      -0.00370812 </v>
    <v>        0.50035967       0.49690109      -0.00329866 </v>
    <v>        0.25363237       0.24636763       0.11413057 </v>
    <v>        0.75305383       0.24585313       0.11491736 </v>
    <v>        0.25414687       0.74694617       0.11491736 </v>
    <v>        0.75203242       0.74796758       0.11158513 </v>
    <v>        0.00700285      -0.00970077       0.23430224 </v>
    <v>        0.01070169       0.48929831       0.23342005 </v>
    <v>        0.50203082      -0.00203082       0.23596007 </v>
    <v>        0.50970077       0.49299715       0.23430224 </v>
    <v>        0.35008951       0.14991049       0.39498316 </v>
    <v>        0.77331156       0.23320086       0.34839202 </v>
    <v>        0.26679914       0.72668844       0.34839202 </v>
    <v>        0.75537079       0.74462921       0.35642333 </v>
    <v>        0.04895579       0.45104421       0.44035335 </v>
   </varray>
  </structure>
  <varray name="forces">
   <v>        0.00671749      -0.02182772       0.15796188 </v>
   <v>       -0.00239943       0.00239943       0.16855475 </v>
   <v>        0.02447014      -0.02447014       0.14658278 </v>
   <v>        0.02182772      -0.00671749       0.15796188 </v>
   <v>        0.02069255      -0.02069255       0.05147924 </v>
   <v>        0.02707990      -0.02414860       0.04042730 </v>
   <v>        0.02414860      -0.02707990       0.04042730 </v>
   <v>        0.01791914      -0.01791914       0.14412523 </v>
   <v>        0.04413327      -0.02780465      -0.06869620 </v>
   <v>        0.04093419      -0.04093419       0.01901209 </v>
   <v>        0.01735853      -0.01735853      -0.00170664 </v>
   <v>        0.02780465      -0.04413327      -0.06869620 </v>
   <v>       -0.26760682       0.26760682      -0.52536523 </v>
   <v>        0.08480549      -0.08156664      -0.06486298 </v>
   <v>        0.08156664      -0.08480549      -0.06486298 </v>
   <v>        0.02584190      -0.02584190      -0.17973590 </v>
   <v>       -0.19529395       0.19529395       0.04739366 </v>
  </varray>
  <varray name="stress">
   <v>      -35.32959260       8.54189683      -4.25806420 </v>
   <v>        8.54189683     -35.32959260       4.25806420 </v>
   <v>       -4.25806420       4.25806420     -14.95938135 </v>
  </varray>
  <energy>
   <i name="e_fr_energy">          -94.12466771 </i>
   <i name="e_wo_entrp">          -94.12466771 </i>
   <i name="e_0_energy">          -94.12466771 </i>
  </energy>
 </calculation>
 <calculation>
  <scstep>
   <energy>
    <i name="e_fr_energy">          -94.13579427 </i>
    <i name="e_wo_entrp">          -94.13579427 </i>
    <i name="e_0_energy">          -94.13579427 </i>
   </energy>
  </scstep>
  <structure>
   <crystal>
    <varray name="basis">
     <v>        5.62024000       0.00000000       0.00000000 </v>
     <v>        0.00000000       5.62024000       0.00000000 </v>
     <v>        0.00000000       0.00000000      16.86072000 </v>
    </varray>
    <i name="volume">      532.58120922 </i>
    <varray name="rec_basis">
     <v>        0.17792834       0.00000000       0.00000000 </v>
     <v>        0.00000000       0.17792834       0.00000000 </v>
     <v>        0.00000000       0.00000000       0.05930945 </v>
    </varray>
   </crystal>
   <varray name="positions">
    <v>        0.00309491      -0.00048843      -0.00281836 </v>
    <v>        0.00256605       0.49743395      -0.00267267 </v>
    <v>        0.50058575      -0.00058575      -0.00325350 </v>
    <v>        0.50048843       0.49690509      -0.00281836 </v>
    <v>        0.25367342       0.24632658       0.11426430 </v>
    <v>        0.75318157       0.24580087       0.11502142 </v>
    <v>        0.25419913       0.74681843       0.11502142 </v>
    <v>        0.75211666       0.74788334       0.11198729 </v>
    <v>        0.00695862      -0.00970621       0.23404423 </v>
    <v>        0.01085979       0.48914021       0.23344564 </v>
    <v>        0.50187615      -0.00187615       0.23580813 </v>
    <v>        0.50970621       0.49304138       0.23404423 </v>
    <v>        0.35007124       0.14992876       0.39465902 </v>
    <v>        0.77310987       0.23315218       0.34805411 </v>
    <v>        0.26684782       0.72689013       0.34805411 </v>
    <v>        0.75538450       0.74461550       0.35587240 </v>
    <v>        0.04893501       0.45106499       0.43988486 </v>
   </varray>
  </structure>
  <varray name="forces">
   <v>        0.00767494      -0.02181807       0.13060631 </v>
   <v>       -0.00083915       0.00083915       0.13929349 </v>
   <v>        0.02449898      -0.02449898       0.12363317 </v>
   <v>        0.02181807      -0.00767494       0.13060631 </v>
   <v>        0.02102840      -0.02102840       0.04557108 </v>
   <v>        0.02601612      -0.02374042       0.03779582 </v>
   <v>        0.02374042      -0.02601612       0.03779582 </v>
   <v>        0.01762510      -0.01762510       0.13059913 </v>
   <v>        0.04938604      -0.02407709      -0.04652095 </v>
   <v>        0.04299441      -0.04299441       0.02016907 </v>
   <v>        0.01411077      -0.01411077       0.00761686 </v>
   <v>        0.02407709      -0.04938604      -0.04652095 </v>
   <v>       -0.26962052       0.26962052      -0.51586652 </v>
   <v>        0.08623355      -0.08342626      -0.05092460 </v>
   <v>        0.08342626      -0.08623355      -0.05092460 </v>
   <v>        0.02638885      -0.02638885      -0.15542977 </v>
   <v>       -0.19855931       0.19855931       0.06250033 </v>
  </varray>
  <varray name="stress">
   <v>      -33.53266776       8.60051485      -4.30190605 </v>
   <v>        8.60051485     -33.53266776       4.30190605 </v>
   <v>       -4.30190605       4.30190605     -12.94009712 </v>
  </varray>
  <energy>
   <i name="e_fr_energy">          -94.13579427 </i>
   <i name="e_wo_entrp">          -94.13579427 </i>
   <i name="e_0_energy">          -94.13579427 </i>
  </energy>
 </calculation>
 <calculation>
  <scstep>
   <energy>
    <i name="e_fr_energy">          -94.14525090 </i>
    <i name="e_wo_entrp">          -94.14525090 </i>
    <i name="e_0_energy">          -94.14525090 </i>
   </energy>
  </scstep>
  <structure>
   <crystal>
    <varray name="basis">
     <v>        5.62024000       0.00000000       0.00000000 </v>
     <v>        0.00000000       5.62024000       0.00000000 </v>
     <v>        0.00000000       0.00000000      16.86072000 </v>
    </varray>
    <i name="volume">      532.58120922 </i>
    <varray name="rec_basis">
     <v>        0.17792834       0.00000000       0.00000000 </v>
     <v>        0.00000000       0.17792834       0.00000000 </v>
     <v>        0.00000000       0.00000000       0.05930945 </v>
    </varray>
   </crystal>
   <varray name="positions">
    <v>        0.00309933      -0.00063267      -0.00236279 </v>
    <v>        0.00248096       0.49751904      -0.00219977 </v>
    <v>        0.50077584      -0.00077584      -0.00281002 </v>
    <v>        0.50063267       0.49690067      -0.00236279 </v>
    <v>        0.25372196       0.24627804       0.11440055 </v>
    <v>        0.75331086       0.24574838       0.11513166 </v>
    <v>        0.25425162       0.74668914       0.11513166 </v>
    <v>        0.75220652       0.74779348       0.11240093 </v>
    <v>        0.00698103      -0.00965377       0.23383312 </v>
    <v>        0.01104044       0.48895956       0.23347082 </v>
    <v>        0.50168278      -0.00168278       0.23566589 </v>
    <v>        0.50965377       0.49301897       0.23383312 </v>
    <v>        0.35003484       0.14996516       0.39431880 </v>
    <v>        0.77289573       0.23308122       0.34771633 </v>
    <v>        0.26691878       0.72710427       0.34771633 </v>
    <v>        0.75540453       0.74459547       0.35532069 </v>
    <v>        0.04889371       0.45110629       0.43939371 </v>
   </varray>
  </structure>
  <varray name="forces">
   <v>        0.00867497      -0.02148600       0.10573217 </v>
   <v>        0.00091970      -0.00091970       0.11268675 </v>
   <v>        0.02416913      -0.02416913       0.10191339 </v>
   <v>        0.02148600      -0.00867497       0.10573217 </v>
   <v>        0.02087900      -0.02087900       0.03659166 </v>
   <v>        0.02534010      -0.02332537       0.03450465 </v>
   <v>        0.02332537      -0.02534010       0.03450465 </v>
   <v>        0.01750304      -0.01750304       0.11674660 </v>
   <v>        0.05267562      -0.02298436      -0.02882799 </v>
   <v>        0.04323971      -0.04323971       0.02057230 </v>
   <v>        0.01389444      -0.01389444       0.01441498 </v>
   <v>        0.02298436      -0.05267562      -0.02882799 </v>
   <v>       -0.27243347       0.27243347      -0.50474051 </v>
   <v>        0.08771354      -0.08483876      -0.03540280 </v>
   <v>        0.08483876      -0.08771354      -0.03540280 </v>
   <v>        0.02661304      -0.02661304      -0.13088549 </v>
   <v>       -0.20182331       0.20182331       0.08068827 </v>
  </varray>
  <varray name="stress">
   <v>      -31.73259102       8.65668540      -4.35051917 </v>
   <v>        8.65668540     -31.73259102       4.35051917 </v>
   <v>       -4.35051917       4.35051917     -10.94405401 </v>
  </varray>
  <energy>
   <i name="e_fr_energy">          -94.14525090 </i>
   <i name="e_wo_entrp">          -94.14525090 </i>
   <i name="e_0_energy">          -94.14525090 </i>
  </energy>
 </calculation>
 <calculation>
  <scstep>
   <energy>
    <i name="e_fr_energy">          -94.15318713 </i>
    <i name="e_wo_entrp">          -94.15318713 </i>
    <i name="e_0_energy">          -94.15318713 </i>
   </energy>
  </scstep>
  <structure>
   <crystal>
    <varray name="basis">
     <v>        5.62024000       0.00000000       0.00000000 </v>
     <v>        0.00000000       5.62024000       0.00000000 </v>
     <v>        0.00000000       0.00000000      16.86072000 </v>
    </varray>
    <i name="volume">      532.58120922 </i>
    <varray name="rec_basis">
     <v>        0.17792834       0.00000000       0.00000000 </v>
     <v>        0.00000000       0.17792834       0.00000000 </v>
     <v>        0.00000000       0.00000000       0.05930945 </v>
    </varray>
   </crystal>
   <varray name="positions">
    <v>        0.00311568      -0.00079282      -0.00192970 </v>
    <v>        0.00240106       0.49759894      -0.00175501 </v>
    <v>        0.50099311      -0.00099311      -0.00237643 </v>
    <v>        0.50079282       0.49688432      -0.00192970 </v>
    <v>        0.25377352       0.24622648       0.11452732 </v>
    <v>        0.75344726       0.24569614       0.11524797 </v>
    <v>        0.25430386       0.74655274       0.11524797 </v>
    <v>        0.75230606       0.74769394       0.11283049 </v>
    <v>        0.00707298      -0.00955050       0.23366573 </v>
    <v>        0.01122808       0.48877192       0.23349403 </v>
    <v>        0.50147578      -0.00147578       0.23552665 </v>
    <v>        0.50955050       0.49292702       0.23366573 </v>
    <v>        0.34997400       0.15002600       0.39396682 </v>
    <v>        0.77266257       0.23298857       0.34738280 </v>
    <v>        0.26701143       0.72733743       0.34738280 </v>
    <v>        0.75542798       0.74457202       0.35476791 </v>
    <v>        0.04882676       0.45117324       0.43888285 </v>
   </varray>
  </structure>
  <varray name="forces">
   <v>        0.00936707      -0.02127088       0.08306201 </v>
   <v>        0.00244145      -0.00244145       0.08837269 </v>
   <v>        0.02377576      -0.02377576       0.08135701 </v>
   <v>        0.02127088      -0.00936707       0.08306201 </v>
   <v>        0.02051147      -0.02051147       0.02636229 </v>
   <v>        0.02482481      -0.02304586       0.03056036 </v>
   <v>        0.02304586      -0.02482481       0.03056036 </v>
   <v>        0.01748060      -0.01748060       0.10180221 </v>
   <v>        0.05462502      -0.02341891      -0.01527743 </v>
   <v>        0.04264030      -0.04264030       0.02065484 </v>
   <v>        0.01567909      -0.01567909       0.01925247 </v>
   <v>        0.02341891      -0.05462502      -0.01527743 </v>
   <v>       -0.27589535       0.27589535      -0.49231987 </v>
   <v>        0.08940856      -0.08599188      -0.01902049 </v>
   <v>        0.08599188      -0.08940856      -0.01902049 </v>
   <v>        0.02654886      -0.02654886      -0.10589123 </v>
   <v>       -0.20513518       0.20513518       0.10176071 </v>
  </varray>
  <varray name="stress">
   <v>      -29.93265842       8.70888974      -4.40120659 </v>
   <v>        8.70888974     -29.93265842       4.40120659 </v>
   <v>       -4.40120659       4.40120659      -8.97686837 </v>
  </varray>
  <energy>
   <i name="e_fr_energy">          -94.15318713 </i>
   <i name="e_wo_entrp">          -94.15318713 </i>
   <i name="e_0_energy">          -94.15318713 </i>
  </energy>
 </calculation>
 <calculation>
  <scstep>
   <energy>
    <i name="e_fr_energy">          -94.15971574 </i>
    <i name="e_wo_entrp">          -94.15971574 </i>
    <i name="e_0_energy">          -94.15971574 </i>
   </energy>
  </scstep>
  <structure>
   <crystal>
    <varray name="basis">
     <v>        5.62024000       0.00000000       0.00000000 </v>
     <v>        0.00000000       5.62024000       0.00000000 </v>
     <v>        0.00000000       0.00000000      16.86072000 </v>
    </varray>
    <i name="volume">      532.58120922 </i>
    <varray name="rec_basis">
     <v>        0.17792834       0.00000000       0.00000000 </v>
     <v>        0.00000000       0.17792834       0.00000000 </v>
     <v>        0.00000000       0.00000000       0.05930945 </v>
    </varray>
   </crystal>
   <varray name="positions">
    <v>        0.00314339      -0.00097770      -0.00151619 </v>
    <v>        0.00232397       0.49767603      -0.00133732 </v>
    <v>        0.50124825      -0.00124825      -0.00195020 </v>
    <v>        0.50097770       0.49685661      -0.00151619 </v>
    <v>        0.25382505       0.24617495       0.11463351 </v>
    <v>        0.75359619       0.24564270       0.11537025 </v>
    <v>        0.25435730       0.74640381       0.11537025 </v>
    <v>        0.75242088       0.74757912       0.11328013 </v>
    <v>        0.00724924      -0.00938929       0.23353851 </v>
    <v>        0.01140982       0.48859018       0.23351438 </v>
    <v>        0.50128217      -0.00128217       0.23538149 </v>
    <v>        0.50938929       0.49275076       0.23353851 </v>
    <v>        0.34988089       0.15011911       0.39360890 </v>
    <v>        0.77240062       0.23287270       0.34705706 </v>
    <v>        0.26712730       0.72759938       0.34705706 </v>
    <v>        0.75545035       0.74454965       0.35421413 </v>
    <v>        0.04872949       0.45127051       0.43835398 </v>
   </varray>
  </structure>
  <varray name="forces">
   <v>        0.00976059      -0.02117814       0.06224490 </v>
   <v>        0.00373564      -0.00373564       0.06603354 </v>
   <v>        0.02323400      -0.02323400       0.06176446 </v>
   <v>        0.02117814      -0.00976059       0.06224490 </v>
   <v>        0.02009386      -0.02009386       0.01605356 </v>
   <v>        0.02437847      -0.02291212       0.02593523 </v>
   <v>        0.02291212      -0.02437847       0.02593523 </v>
   <v>        0.01760176      -0.01760176       0.08554776 </v>
   <v>        0.05545806      -0.02491054      -0.00531655 </v>
   <v>        0.04165656      -0.04165656       0.02092595 </v>
   <v>        0.01870938      -0.01870938       0.02303248 </v>
   <v>        0.02491054      -0.05545806      -0.00531655 </v>
   <v>       -0.27966827       0.27966827      -0.47905708 </v>
   <v>        0.09146547      -0.08697443      -0.00248911 </v>
   <v>        0.08697443      -0.09146547      -0.00248911 </v>
   <v>        0.02632803      -0.02632803      -0.08055742 </v>
   <v>       -0.20872877       0.20872877       0.12550782 </v>
  </varray>
  <varray name="stress">
   <v>      -28.13355982       8.75396127      -4.45170797 </v>
   <v>        8.75396127     -28.13355982       4.45170797 </v>
   <v>       -4.45170797       4.45170797      -7.04352729 </v>
  </varray>
  <energy>
   <i name="e_fr_energy">          -94.15971574 </i>
   <i name="e_wo_entrp">          -94.15971574 </i>
   <i name="e_0_energy">          -94.15971574 </i>
  </energy>
 </calculation>
 <calculation>
  <scstep>
   <energy>
    <i name="e_fr_energy">          -94.16492618 </i>
    <i name="e_wo_entrp">          -94.16492618 </i>
    <i name="e_0_energy">          -94.16492618 </i>
   </energy>
  </scstep>
  <structure>
   <crystal>
    <varray name="basis">
     <v>        5.62024000       0.00000000       0.00000000 </v>
     <v>        0.00000000       5.62024000       0.00000000 </v>
     <v>        0.00000000       0.00000000      16.86072000 </v>
    </varray>
    <i name="volume">      532.58120922 </i>
    <varray name="rec_basis">
     <v>        0.17792834       0.00000000       0.00000000 </v>
     <v>        0.00000000       0.17792834       0.00000000 </v>
     <v>        0.00000000       0.00000000       0.05930945 </v>
    </varray>
   </crystal>
   <varray name="positions">
    <v>        0.00318006      -0.00120571      -0.00111963 </v>
    <v>        0.00224428       0.49775572      -0.00094736 </v>
    <v>        0.50156088      -0.00156088      -0.00152805 </v>
    <v>        0.50120571       0.49681994      -0.00111963 </v>
    <v>        0.25387432       0.24612568       0.11470499 </v>
    <v>        0.75376568       0.24558529       0.11549798 </v>
    <v>        0.25441471       0.74623432       0.11549798 </v>
    <v>        0.75256256       0.74743744       0.11375636 </v>
    <v>        0.00754504      -0.00914369       0.23344924 </v>
    <v>        0.01156697       0.48843303       0.23353304 </v>
    <v>        0.50114069      -0.00114069       0.23521943 </v>
    <v>        0.50914369       0.49245496       0.23344924 </v>
    <v>        0.34974767       0.15025233       0.39325347 </v>
    <v>        0.77209393       0.23272917       0.34674191 </v>
    <v>        0.26727083       0.72790607       0.34674191 </v>
    <v>        0.75546579       0.74453421       0.35365924 </v>
    <v>        0.04859125       0.45140875       0.43780815 </v>
   </varray>
  </structure>
  <varray name="forces">
   <v>        0.01004050      -0.02094296       0.04289357 </v>
   <v>        0.00510371      -0.00510371       0.04536706 </v>
   <v>        0.02223932      -0.02223932       0.04290540 </v>
   <v>        0.02094296      -0.01004050       0.04289357 </v>
   <v>        0.01975286      -0.01975286       0.00681446 </v>
   <v>        0.02396542      -0.02294833       0.02070322 </v>
   <v>        0.02294833      -0.02396542       0.02070322 </v>
   <v>        0.01788224      -0.01788224       0.06807663 </v>
   <v>        0.05506788      -0.02743554       0.00155500 </v>
   <v>        0.04057509      -0.04057509       0.02172823 </v>
   <v>        0.02226640      -0.02226640       0.02663048 </v>
   <v>        0.02743554      -0.05506788       0.00155500 </v>
   <v>       -0.28363418       0.28363418      -0.46534682 </v>
   <v>        0.09425816      -0.08769007       0.01366090 </v>
   <v>        0.08769007      -0.09425816       0.01366090 </v>
   <v>        0.02614911      -0.02614911      -0.05519293 </v>
   <v>       -0.21268343       0.21268343       0.15139211 </v>
  </varray>
  <varray name="stress">
   <v>      -26.33700788       8.78758384      -4.49905194 </v>
   <v>        8.78758384     -26.33700788       4.49905194 </v>
   <v>       -4.49905194       4.49905194      -5.15323185 </v>
  </varray>
  <energy>
   <i name="e_fr_energy">          -94.16492618 </i>
   <i name="e_wo_entrp">          -94.16492618 </i>
   <i name="e_0_energy">          -94.16492618 </i>
  </energy>
 </calculation>
 <calculation>
  <scstep>
   <energy>
    <i name="e_fr_energy">          -94.16890415 </i>
    <i name="e_wo_entrp">          -94.16890415 </i>
    <i name="e_0_energy">          -94.16890415 </i>
   </energy>
  </scstep>
  <structure>
   <crystal>
    <varray name="basis">
     <v>        5.62024000       0.00000000       0.00000000 </v>
     <v>        0.00000000       5.62024000       0.00000000 </v>
     <v>        0.00000000       0.00000000      16.86072000 </v>
    </varray>
    <i name="volume">      532.58120922 </i>
    <varray name="rec_basis">
     <v>        0.17792834       0.00000000       0.00000000 </v>
     <v>        0.00000000       0.17792834       0.00000000 </v>
     <v>        0.00000000       0.00000000       0.05930945 </v>
    </varray>
   </crystal>
   <varray name="positions">
    <v>        0.00322269      -0.00151435      -0.00073957 </v>
    <v>        0.00215732       0.49784268      -0.00059161 </v>
    <v>        0.50196870      -0.00196870      -0.00110614 </v>
    <v>        0.50151435       0.49677731      -0.00073957 </v>
    <v>        0.25391999       0.24608001       0.11471778 </v>
    <v>        0.75397287       0.24551677       0.11563025 </v>
    <v>        0.25448323       0.74602713       0.11563025 </v>
    <v>        0.75275888       0.74724112       0.11427531 </v>
    <v>        0.00804792      -0.00874268       0.23339928 </v>
    <v>        0.01165595       0.48834405       0.23355531 </v>
    <v>        0.50112826      -0.00112826       0.23502373 </v>
    <v>        0.50874268       0.49195208       0.23339928 </v>
    <v>        0.34955833       0.15044167       0.39291739 </v>
    <v>        0.77171876       0.23255135       0.34644025 </v>
    <v>        0.26744865       0.72828124       0.34644025 </v>
    <v>        0.75546701       0.74453299       0.35310224 </v>
    <v>        0.04838599       0.45161401       0.43724385 </v>
   </varray>
  </structure>
  <varray name="forces">
   <v>        0.01048294      -0.02014041       0.02477791 </v>
   <v>        0.00704151      -0.00704151       0.02630595 </v>
   <v>        0.02028670      -0.02028670       0.02471574 </v>
   <v>        0.02014041      -0.01048294       0.02477791 </v>
   <v>        0.01962199      -0.01962199       0.00022203 </v>
   <v>        0.02355405      -0.02323020       0.01492343 </v>
   <v>        0.02323020      -0.02355405       0.01492343 </v>
   <v>        0.01826982      -0.01826982       0.04925028 </v>
   <v>        0.05280331      -0.03155746       0.00577266 </v>
   <v>        0.03980226      -0.03980226       0.02288947 </v>
   <v>        0.02537107      -0.02537107       0.03125400 </v>
   <v>        0.03155746      -0.05280331       0.00577266 </v>
   <v>       -0.28727277       0.28727277      -0.45219470 </v>
   <v>        0.09766590      -0.08839688       0.02895122 </v>
   <v>        0.08839688      -0.09766590       0.02895122 </v>
   <v>        0.02598924      -0.02598924      -0.03045788 </v>
   <v>       -0.21694096       0.21694096       0.17916468 </v>
  </varray>
  <varray name="stress">
   <v>      -24.55208844       8.80065164      -4.53693996 </v>
   <v>        8.80065164     -24.55208844       4.53693996 </v>
   <v>       -4.53693996       4.53693996      -3.32842326 </v>
  </varray>
  <energy>
   <i name="e_fr_energy">          -94.16890415 </i>
   <i name="e_wo_entrp">          -94.16890415 </i>
   <i name="e_0_energy">          -94.16890415 </i>
  </energy>
 </calculation>
 <calculation>
  <scstep>
   <energy>
    <i name="e_fr_energy">          -94.17121069 </i>
    <i name="e_wo_entrp">          -94.17121069 </i>
    <i name="e_0_energy">          -94.17121069 </i>
   </energy>
  </scstep>
  <structure>
   <crystal>
    <varray name="basis">
     <v>        5.62024000       0.00000000       0.00000000 </v>
     <v>        0.00000000       5.62024000       0.00000000 </v>
     <v>        0.00000000       0.00000000      16.86072000 </v>
    </varray>
    <i name="volume">      532.58120922 </i>
    <varray name="rec_basis">
     <v>        0.17792834       0.00000000       0.00000000 </v>
     <v>        0.00000000       0.17792834       0.00000000 </v>
     <v>        0.00000000       0.00000000       0.05930945 </v>
    </varray>
   </crystal>
   <varray name="positions">
    <v>        0.00325576      -0.00190754      -0.00046603 </v>
    <v>        0.00209469       0.49790531      -0.00036758 </v>
    <v>        0.50243906      -0.00243906      -0.00077536 </v>
    <v>        0.50190754       0.49674424      -0.00046603 </v>
    <v>        0.25395534       0.24604466       0.11463276 </v>
    <v>        0.75420783       0.24543074       0.11573282 </v>
    <v>        0.25456926       0.74579217       0.11573282 </v>
    <v>        0.75302923       0.74697077       0.11475239 </v>
    <v>        0.00883994      -0.00811196       0.23340454 </v>
    <v>        0.01154229       0.48845771       0.23358475 </v>
    <v>        0.50141475      -0.00141475       0.23481968 </v>
    <v>        0.50811196       0.49116006       0.23340454 </v>
    <v>        0.34935168       0.15064832       0.39270832 </v>
    <v>        0.77130613       0.23235628       0.34622157 </v>
    <v>        0.26764372       0.72869387       0.34622157 </v>
    <v>        0.75543414       0.74456586       0.35266360 </v>
    <v>        0.04810424       0.45189576       0.43679387 </v>
   </varray>
  </structure>
  <varray name="forces">
   <v>        0.01138810      -0.01849233       0.01217748 </v>
   <v>        0.00969101      -0.00969101       0.01357604 </v>
   <v>        0.01716031      -0.01716031       0.01164664 </v>
   <v>        0.01849233      -0.01138810       0.01217748 </v>
   <v>        0.02009483      -0.02009483      -0.00008340 </v>
   <v>        0.02286480      -0.02401507       0.01014739 </v>
   <v>        0.02401507      -0.02286480       0.01014739 </v>
   <v>        0.01818167      -0.01818167       0.03259043 </v>
   <v>        0.04757377      -0.03790710       0.00686482 </v>
   <v>        0.04044248      -0.04044248       0.02419425 </v>
   <v>        0.02546764      -0.02546764       0.03525350 </v>
   <v>        0.03790710      -0.04757377       0.00686482 </v>
   <v>       -0.29171635       0.29171635      -0.44245429 </v>
   <v>        0.10338854      -0.08707013       0.04040150 </v>
   <v>        0.08707013      -0.10338854       0.04040150 </v>
   <v>        0.02710756      -0.02710756      -0.01254245 </v>
   <v>       -0.21912901       0.21912901       0.19863690 </v>
  </varray>
  <varray name="stress">
   <v>      -23.21915311       8.77786222      -4.54522089 </v>
   <v>        8.77786222     -23.21915311       4.54522089 </v>
   <v>       -4.54522089       4.54522089      -2.04167021 </v>
  </varray>
  <energy>
   <i name="e_fr_energy">          -94.17121069 </i>
   <i name="e_wo_entrp">          -94.17121069 </i>
   <i name="e_0_energy">          -94.17121069 </i>
  </energy>
 </calculation>
 <calculation>
  <scstep>
   <energy>
    <i name="e_fr_energy">          -94.17174856 </i>
    <i name="e_wo_entrp">          -94.17174856 </i>
    <i name="e_0_energy">          -94.17174856 </i>
   </energy>
  </scstep>
  <structure>
   <crystal>
    <varray name="basis">
     <v>        5.62024000       0.00000000       0.00000000 </v>
     <v>        0.00000000       5.62024000       0.00000000 </v>
     <v>        0.00000000       0.00000000      16.86072000 </v>
    </varray>
    <i name="volume">      532.58120922 </i>
    <varray name="rec_basis">
     <v>        0.17792834       0.00000000       0.00000000 </v>
     <v>        0.00000000       0.17792834       0.00000000 </v>
     <v>        0.00000000       0.00000000       0.05930945 </v>
    </varray>
   </crystal>
   <varray name="positions">
    <v>        0.00325341      -0.00237853      -0.00038101 </v>
    <v>        0.00217819       0.49782181      -0.00035357 </v>
    <v>        0.50283142      -0.00283142      -0.00062317 </v>
    <v>        0.50237853       0.49674659      -0.00038101 </v>
    <v>        0.25402359       0.24597641       0.11448154 </v>
    <v>        0.75442674       0.24526511       0.11576148 </v>
    <v>        0.25473489       0.74557326       0.11576148 </v>
    <v>        0.75336847       0.74663153       0.11507220 </v>
    <v>        0.00996596      -0.00719625       0.23345905 </v>
    <v>        0.01101554       0.48898446       0.23362731 </v>
    <v>        0.50215826      -0.00215826       0.23462532 </v>
    <v>        0.50719625       0.49003404       0.23345905 </v>
    <v>        0.34901193       0.15098807       0.39276992 </v>
    <v>        0.77117595       0.23236274       0.34616896 </v>
    <v>        0.26763726       0.72882405       0.34616896 </v>
    <v>        0.75546566       0.74453434       0.35245785 </v>
    <v>        0.04786309       0.45213691       0.43652390 </v>
   </varray>
  </structure>
  <varray name="forces">
   <v>        0.01285154      -0.01641185       0.00917543 </v>
   <v>        0.01211701      -0.01211701       0.01291882 </v>
   <v>        0.01406700      -0.01406700       0.00615255 </v>
   <v>        0.01641185      -0.01285154       0.00917543 </v>
   <v>        0.01750171      -0.01750171       0.00424523 </v>
   <v>        0.02475652      -0.02204243       0.00829290 </v>
   <v>        0.02204243      -0.02475652       0.00829290 </v>
   <v>        0.01933802      -0.01933802       0.02096564 </v>
   <v>        0.03755862      -0.04647987       0.00790852 </v>
   <v>        0.04554829      -0.04554829       0.01380704 </v>
   <v>        0.02259317      -0.02259317       0.05494788 </v>
   <v>        0.04647987      -0.03755862       0.00790852 </v>
   <v>       -0.26440387       0.26440387      -0.46287998 </v>
   <v>        0.07523323      -0.10999441       0.03551055 </v>
   <v>        0.10999441      -0.07523323       0.03551055 </v>
   <v>        0.01516967      -0.01516967      -0.01044235 </v>
   <v>       -0.22725949       0.22725949       0.23851038 </v>
  </varray>
  <varray name="stress">
   <v>      -22.73993318       8.65616926      -4.48403884 </v>
   <v>        8.65616926     -22.73993318       4.48403884 </v>
   <v>       -4.48403884       4.48403884      -1.63181278 </v>
  </varray>
  <energy>
   <i name="e_fr_energy">          -94.17174856 </i>
   <i name="e_wo_entrp">          -94.17174856 </i>
   <i name="e_0_energy">          -94.17174856 </i>
  </energy>
 </calculation>
 <calculation>
  <scstep>
   <energy>
    <i name="e_fr_energy">          -94.17180331 </i>
    <i name="e_wo_entrp">          -94.17180331 </i>
    <i name="e_0_energy">          -94.17180331 </i>
   </energy>
  </scstep>
  <structure>
   <crystal>
    <varray name="basis">
     <v>        5.62024000       0.00000000       0.00000000 </v>
     <v>        0.00000000       5.62024000       0.00000000 </v>
     <v>        0.00000000       0.00000000      16.86072000 </v>
    </varray>
    <i name="volume">      532.58120922 </i>
    <varray name="rec_basis">
     <v>        0.17792834       0.00000000       0.00000000 </v>
     <v>        0.00000000       0.17792834       0.00000000 </v>
     <v>        0.00000000       0.00000000       0.05930945 </v>
    </varray>
   </crystal>
   <varray name="positions">
    <v>        0.00325226      -0.00238420      -0.00038149 </v>
    <v>        0.00218673       0.49781327      -0.00035247 </v>
    <v>        0.50282742      -0.00282742      -0.00062553 </v>
    <v>        0.50238420       0.49674774      -0.00038149 </v>
    <v>        0.25401485       0.24598515       0.11448155 </v>
    <v>        0.75443636       0.24527019       0.11576042 </v>
    <v>        0.25472981       0.74556364       0.11576042 </v>
    <v>        0.75337755       0.74662245       0.11506888 </v>
    <v>        0.00996937      -0.00718854       0.23346220 </v>
    <v>        0.01100865       0.48899135       0.23361443 </v>
    <v>        0.50217464      -0.00217464       0.23464409 </v>
    <v>        0.50718854       0.49003063       0.23346220 </v>
    <v>        0.34911198       0.15088802       0.39274868 </v>
    <v>        0.77107037       0.23228385       0.34616043 </v>
    <v>        0.26771615       0.72892963       0.34616043 </v>
    <v>        0.75542290       0.74457710       0.35245341 </v>
    <v>        0.04783751       0.45216249       0.43656210 </v>
   </varray>
  </structure>
  <varray name="forces">
   <v>        0.01287765      -0.01643787       0.00912986 </v>
   <v>        0.01202182      -0.01202182       0.01218394 </v>
   <v>        0.01407931      -0.01407931       0.00673369 </v>
   <v>        0.01643787      -0.01287765       0.00912986 </v>
   <v>        0.01911452      -0.01911452       0.00478734 </v>
   <v>        0.02319929      -0.02330417       0.00873168 </v>
   <v>        0.02330417      -0.02319929       0.00873168 </v>
   <v>        0.01813114      -0.01813114       0.02149874 </v>
   <v>        0.03818344      -0.04654777       0.00674031 </v>
   <v>        0.04525868      -0.04525868       0.01955516 </v>
   <v>        0.02144394      -0.02144394       0.04545425 </v>
   <v>        0.04654777      -0.03818344       0.00674031 </v>
   <v>       -0.28017567       0.28017567      -0.45150188 </v>
   <v>        0.09271053      -0.09678522       0.04000348 </v>
   <v>        0.09678522      -0.09271053       0.04000348 </v>
   <v>        0.02245071      -0.02245071      -0.00792378 </v>
   <v>       -0.22237039       0.22237039       0.22000189 </v>
  </varray>
  <varray name="stress">
   <v>      -22.75480719       8.68130727      -4.49342615 </v>
   <v>        8.68130727     -22.75480719       4.49342615 </v>
   <v>       -4.49342615       4.49342615      -1.67235413 </v>
  </varray>
  <energy>
   <i name="e_fr_energy">          -94.17180331 </i>
   <i name="e_wo_entrp">          -94.17180331 </i>
   <i name="e_0_energy">          -94.17180331 </i>
  </energy>
 </calculation>
 <calculation>
  <scstep>
   <energy>
    <i name="e_fr_energy">          -94.17165199 </i>
    <i name="e_wo_entrp">          -94.17165199 </i>
    <i name="e_0_energy">          -94.17165199 </i>
   </energy>
  </scstep>
  <structure>
   <crystal>
    <varray name="basis">
     <v>        5.62024000       0.00000000       0.00000000 </v>
     <v>        0.00000000       5.62024000       0.00000000 </v>
     <v>        0.00000000       0.00000000      16.86072000 </v>
    </varray>
    <i name="volume">      532.58120922 </i>
    <varray name="rec_basis">
     <v>        0.17792834       0.00000000       0.00000000 </v>
     <v>        0.00000000       0.17792834       0.00000000 </v>
     <v>        0.00000000       0.00000000       0.05930945 </v>
    </varray>
   </crystal>
   <varray name="positions">
    <v>        0.00324770      -0.00240925      -0.00038391 </v>
    <v>        0.00222263       0.49777737      -0.00035165 </v>
    <v>        0.50280999      -0.00280999      -0.00063273 </v>
    <v>        0.50240925       0.49675230      -0.00038391 </v>
    <v>        0.25400259       0.24599741       0.11448458 </v>
    <v>        0.75445370       0.24527218       0.11575809 </v>
    <v>        0.25472782       0.74554630       0.11575809 </v>
    <v>        0.75339797       0.74660203       0.11505709 </v>
    <v>        0.00999453      -0.00715654       0.23346971 </v>
    <v>        0.01097454       0.48902546       0.23358899 </v>
    <v>        0.50222781      -0.00222781       0.23467571 </v>
    <v>        0.50715654       0.49000547       0.23346971 </v>
    <v>        0.34929369       0.15070631       0.39271510 </v>
    <v>        0.77088963       0.23214944       0.34614736 </v>
    <v>        0.26785056       0.72911037       0.34614736 </v>
    <v>        0.75535272       0.74464728       0.35244750 </v>
    <v>        0.04780134       0.45219866       0.43663116 </v>
   </varray>
  </structure>
  <varray name="forces">
   <v>        0.01292575      -0.01638192       0.00913826 </v>
   <v>        0.01176604      -0.01176604       0.01096594 </v>
   <v>        0.01420382      -0.01420382       0.00787968 </v>
   <v>        0.01638192      -0.01292575       0.00913826 </v>
   <v>        0.02190878      -0.02190878       0.00553809 </v>
   <v>        0.02052029      -0.02544789       0.00948504 </v>
   <v>        0.02544789      -0.02052029       0.00948504 </v>
   <v>        0.01603585      -0.01603585       0.02274781 </v>
   <v>        0.03912320      -0.04691762       0.00464344 </v>
   <v>        0.04486909      -0.04486909       0.02963106 </v>
   <v>        0.01932291      -0.01932291       0.02906466 </v>
   <v>        0.04691762      -0.03912320       0.00464344 </v>
   <v>       -0.30749547       0.30749547      -0.43172702 </v>
   <v>        0.12311655      -0.07390734       0.04751657 </v>
   <v>        0.07390734      -0.12311655       0.04751657 </v>
   <v>        0.03501633      -0.03501633      -0.00360095 </v>
   <v>       -0.21396793       0.21396793       0.18793412 </v>
  </varray>
  <varray name="stress">
   <v>      -22.78655641       8.72344461      -4.50866845 </v>
   <v>        8.72344461     -22.78655641       4.50866845 </v>
   <v>       -4.50866845       4.50866845      -1.75092208 </v>
  </varray>
  <energy>
   <i name="e_fr_energy">          -94.17165199 </i>
   <i name="e_wo_entrp">          -94.17165199 </i>
   <i name="e_0_energy">          -94.17165199 </i>
  </energy>
 </calculation>
 <calculation>
  <scstep>
   <energy>
    <i name="e_fr_energy">          -94.17168376 </i>
    <i name="e_wo_entrp">          -94.17168376 </i>
    <i name="e_0_energy">          -94.17168376 </i>
   </energy>
  </scstep>
  <structure>
   <crystal>
    <varray name="basis">
     <v>        5.62024000       0.00000000       0.00000000 </v>
     <v>        0.00000000       5.62024000       0.00000000 </v>
     <v>        0.00000000       0.00000000      16.86072000 </v>
    </varray>
    <i name="volume">      532.58120922 </i>
    <varray name="rec_basis">
     <v>        0.17792834       0.00000000       0.00000000 </v>
     <v>        0.00000000       0.17792834       0.00000000 </v>
     <v>        0.00000000       0.00000000       0.05930945 </v>
    </varray>
   </crystal>
   <varray name="positions">
    <v>        0.00324687      -0.00241456      -0.00038451 </v>
    <v>        0.00222990       0.49777010      -0.00035301 </v>
    <v>        0.50280631      -0.00280631      -0.00063299 </v>
    <v>        0.50241456       0.49675313      -0.00038451 </v>
    <v>        0.25401008       0.24598992       0.11448627 </v>
    <v>        0.75444798       0.24526482       0.11575847 </v>
    <v>        0.25473518       0.74555202       0.11575847 </v>
    <v>        0.75339493       0.74660507       0.11505583 </v>
    <v>        0.01000374      -0.00715112       0.23346884 </v>
    <v>        0.01096584       0.48903416       0.23359565 </v>
    <v>        0.50223203      -0.00223203       0.23466302 </v>
    <v>        0.50715112       0.48999626       0.23346884 </v>
    <v>        0.34923285       0.15076715       0.39273067 </v>
    <v>        0.77096043       0.23220193       0.34615373 </v>
    <v>        0.26779807       0.72903957       0.34615373 </v>
    <v>        0.75538283       0.74461717       0.35245144 </v>
    <v>        0.04782208       0.45217792       0.43660832 </v>
   </varray>
  </structure>
  <varray name="forces">
   <v>        0.01290652      -0.01631953       0.00921670 </v>
   <v>        0.01175909      -0.01175909       0.01147835 </v>
   <v>        0.01426356      -0.01426356       0.00758001 </v>
   <v>        0.01631953      -0.01290652       0.00921670 </v>
   <v>        0.02085960      -0.02085960       0.00511030 </v>
   <v>        0.02154438      -0.02460455       0.00920266 </v>
   <v>        0.02460455      -0.02154438       0.00920266 </v>
   <v>        0.01681856      -0.01681856       0.02257163 </v>
   <v>        0.03864511      -0.04699705       0.00535350 </v>
   <v>        0.04515116      -0.04515116       0.02594423 </v>
   <v>        0.01997703      -0.01997703       0.03532679 </v>
   <v>        0.04699705      -0.03864511       0.00535350 </v>
   <v>       -0.29722466       0.29722466      -0.43921977 </v>
   <v>        0.11173831      -0.08249712       0.04458494 </v>
   <v>        0.08249712      -0.11173831       0.04458494 </v>
   <v>        0.03023453      -0.03023453      -0.00525403 </v>
   <v>       -0.21709144       0.21709144       0.19974689 </v>
  </varray>
  <varray name="stress">
   <v>      -22.78320933       8.70579280      -4.50167091 </v>
   <v>        8.70579280     -22.78320933       4.50167091 </v>
   <v>       -4.50167091       4.50167091      -1.73077511 </v>
  </varray>
  <energy>
   <i name="e_fr_energy">          -94.17168376 </i>
   <i name="e_wo_entrp">          -94.17168376 </i>
   <i name="e_0_energy">          -94.17168376 </i>
  </energy>
 </calculation>
 <calculation>
  <scstep>
   <energy>
    <i name="e_fr_energy">          -94.17162082 </i>
    <i name="e_wo_entrp">          -94.17162082 </i>
    <i name="e_0_energy">          -94.17162082 </i>
   </energy>
  </scstep>
  <structure>
   <crystal>
    <varray name="basis">
     <v>        5.62024000       0.00000000       0.00000000 </v>
     <v>        0.00000000       5.62024000       0.00000000 </v>
     <v>        0.00000000       0.00000000      16.86072000 </v>
    </varray>
    <i name="volume">      532.58120922 </i>
    <varray name="rec_basis">
     <v>        0.17792834       0.00000000       0.00000000 </v>
     <v>        0.00000000       0.17792834       0.00000000 </v>
     <v>        0.00000000       0.00000000       0.05930945 </v>
    </varray>
   </crystal>
   <varray name="positions">
    <v>        0.00324280      -0.00243609      -0.00038674 </v>
    <v>        0.00226091       0.49773909      -0.00035629 </v>
    <v>        0.50279111      -0.00279111      -0.00063572 </v>
    <v>        0.50243609       0.49675720      -0.00038674 </v>
    <v>        0.25402553       0.24597447       0.11449128 </v>
    <v>        0.75443928       0.24524677       0.11575858 </v>
    <v>        0.25475323       0.74556072       0.11575858 </v>
    <v>        0.75339394       0.74660606       0.11504929 </v>
    <v>        0.01003532      -0.00712884       0.23346877 </v>
    <v>        0.01093256       0.48906744       0.23360492 </v>
    <v>        0.50226025      -0.00226025       0.23464125 </v>
    <v>        0.50712884       0.48996468       0.23346877 </v>
    <v>        0.34913513       0.15086487       0.39275954 </v>
    <v>        0.77108477       0.23229296       0.34616568 </v>
    <v>        0.26770704       0.72891523       0.34616568 </v>
    <v>        0.75543672       0.74456328       0.35245977 </v>
    <v>        0.04786360       0.45213640       0.43657164 </v>
   </varray>
  </structure>
  <varray name="forces">
   <v>        0.01286723      -0.01618268       0.00941056 </v>
   <v>        0.01161465      -0.01161465       0.01239550 </v>
   <v>        0.01447141      -0.01447141       0.00716522 </v>
   <v>        0.01618268      -0.01286723       0.00941056 </v>
   <v>        0.01907113      -0.01907113       0.00435201 </v>
   <v>        0.02330306      -0.02315024       0.00875124 </v>
   <v>        0.02315024      -0.02330306       0.00875124 </v>
   <v>        0.01814221      -0.01814221       0.02245227 </v>
   <v>        0.03775296      -0.04723416       0.00649566 </v>
   <v>        0.04581395      -0.04581395       0.01966913 </v>
   <v>        0.02093060      -0.02093060       0.04597957 </v>
   <v>        0.04723416      -0.03775296       0.00649566 </v>
   <v>       -0.27964190       0.27964190      -0.45204849 </v>
   <v>        0.09232544      -0.09717514       0.03945909 </v>
   <v>        0.09717514      -0.09232544       0.03945909 </v>
   <v>        0.02205740      -0.02205740      -0.00806480 </v>
   <v>       -0.22245036       0.22245036       0.21986651 </v>
  </varray>
  <varray name="stress">
   <v>      -22.78325207       8.67440452      -4.48872300 </v>
   <v>        8.67440452     -22.78325207       4.48872300 </v>
   <v>       -4.48872300       4.48872300      -1.70300062 </v>
  </varray>
  <energy>
   <i name="e_fr_energy">          -94.17162082 </i>
   <i name="e_wo_entrp">          -94.17162082 </i>
   <i name="e_0_energy">          -94.17162082 </i>
  </energy>
 </calculation>
 <calculation>
  <scstep>
   <energy>
    <i name="e_fr_energy">          -94.17161748 </i>
    <i name="e_wo_entrp">          -94.17161748 </i>
    <i name="e_0_energy">          -94.17161748 </i>
   </energy>
  </scstep>
  <structure>
   <crystal>
    <varray name="basis">
     <v>        5.62024000       0.00000000       0.00000000 </v>
     <v>        0.00000000       5.62024000       0.00000000 </v>
     <v>        0.00000000       0.00000000      16.86072000 </v>
    </varray>
    <i name="volume">      532.58120922 </i>
    <varray name="rec_basis">
     <v>        0.17792834       0.00000000       0.00000000 </v>
     <v>        0.00000000       0.17792834       0.00000000 </v>
     <v>        0.00000000       0.00000000       0.05930945 </v>
    </varray>
   </crystal>
   <varray name="positions">
    <v>        0.00324162      -0.00244034      -0.00038708 </v>
    <v>        0.00226747       0.49773253      -0.00035600 </v>
    <v>        0.50278811      -0.00278811      -0.00063689 </v>
    <v>        0.50244034       0.49675838      -0.00038708 </v>
    <v>        0.25402244       0.24597756       0.11449154 </v>
    <v>        0.75444363       0.24524813       0.11575803 </v>
    <v>        0.25475187       0.74555637       0.11575803 </v>
    <v>        0.75339841       0.74660159       0.11504751 </v>
    <v>        0.01003906      -0.00712459       0.23347013 </v>
    <v>        0.01092723       0.48907277       0.23359945 </v>
    <v>        0.50227011      -0.00227011       0.23464918 </v>
    <v>        0.50712459       0.48996094       0.23347013 </v>
    <v>        0.34917733       0.15082267       0.39275097 </v>
    <v>        0.77104215       0.23226044       0.34616221 </v>
    <v>        0.26773956       0.72895785       0.34616221 </v>
    <v>        0.75541913       0.74458087       0.35245829 </v>
    <v>        0.04785389       0.45214611       0.43658762 </v>
   </varray>
  </structure>
  <varray name="forces">
   <v>        0.01288153      -0.01619978       0.00939842 </v>
   <v>        0.01154323      -0.01154323       0.01210056 </v>
   <v>        0.01449290      -0.01449290       0.00741209 </v>
   <v>        0.01619978      -0.01288153       0.00939842 </v>
   <v>        0.01973672      -0.01973672       0.00459070 </v>
   <v>        0.02266106      -0.02367511       0.00894155 </v>
   <v>        0.02367511      -0.02266106       0.00894155 </v>
   <v>        0.01764028      -0.01764028       0.02267157 </v>
   <v>        0.03800292      -0.04724779       0.00601413 </v>
   <v>        0.04573948      -0.04573948       0.02202733 </v>
   <v>        0.02042413      -0.02042413       0.04202566 </v>
   <v>        0.04724779      -0.03800292       0.00601413 </v>
   <v>       -0.28613691       0.28613691      -0.44736020 </v>
   <v>        0.09952645      -0.09173010       0.04129876 </v>
   <v>        0.09173010      -0.09952645       0.04129876 </v>
   <v>        0.02507485      -0.02507485      -0.00702163 </v>
   <v>       -0.22043943       0.22043943       0.21224820 </v>
  </varray>
  <varray name="stress">
   <v>      -22.78993456       8.68473086      -4.49244019 </v>
   <v>        8.68473086     -22.78993456       4.49244019 </v>
   <v>       -4.49244019       4.49244019      -1.72030922 </v>
  </varray>
  <energy>
   <i name="e_fr_energy">          -94.17161748 </i>
   <i name="e_wo_entrp">          -94.17161748 </i>
   <i name="e_0_energy">          -94.17161748 </i>
  </energy>
 </calculation>
 <structure name="finalpos">
  <crystal>
   <varray name="basis">
    <v>        5.62024000       0.00000000       0.00000000 </v>
    <v>        0.00000000       5.62024000       0.00000000 </v>
    <v>        0.00000000       0.00000000      16.86072000 </v>
   </varray>
   <i name="volume">      532.58120922 </i>
   <varray name="rec_basis">
    <v>        0.17792834       0.00000000       0.00000000 </v>
    <v>        0.00000000       0.17792834       0.00000000 </v>
    <v>        0.00000000       0.00000000       0.05930945 </v>
   </varray>
  </crystal>
  <varray name="positions">
   <v>        0.00324162      -0.00244034      -0.00038708 </v>
   <v>        0.00226747       0.49773253      -0.00035600 </v>
   <v>        0.50278811      -0.00278811      -0.00063689 </v>
   <v>        0.50244034       0.49675838      -0.00038708 </v>
   <v>        0.25402244       0.24597756       0.11449154 </v>
   <v>        0.75444363       0.24524813       0.11575803 </v>
   <v>        0.25475187       0.74555637       0.11575803 </v>
   <v>        0.75339841       0.74660159       0.11504751 </v>
   <v>        0.01003906      -0.00712459       0.23347013 </v>
   <v>        0.01092723       0.48907277       0.23359945 </v>
   <v>        0.50227011      -0.00227011       0.23464918 </v>
   <v>        0.50712459       0.48996094       0.23347013 </v>
   <v>        0.34917733       0.15082267       0.39275097 </v>
   <v>        0.77104215       0.23226044       0.34616221 </v>
   <v>        0.26773956       0.72895785       0.34616221 </v>
   <v>        0.75541913       0.74458087       0.35245829 </v>
   <v>        0.04785389       0.45214611       0.43658762 </v>
  </varray>
 </structure>
</modeling>