<?xml version='1.0' encoding='utf-8'?>
<modeling>
 <generator>
  <i name="program" type="string">vasp </i>
  <i name="version" type="string">mace-ase  </i>
  <i name="platform" type="string">mace-ase</i>
  <i name="date" type="string">2026 04 13</i>
  <i name="time" type="string">02:57:59</i>
 </generator>
 <incar>
  <i name="SYSTEM" type="string">Si</i>
  <i name="NSW" type="int">   100</i>
  <i name="EDIFFG">      -0.01000000</i>
  <i name="IBRION" type="int">   1</i>
  <i name="POTIM">      0.80000000</i>
  <i name="ISIF" type="int">   2</i>
  <i name="IMAGES" type="int">   4</i>
  <i name="SPRING" type="int">   -5</i>
  <i name="LCLIMB" type="logical"> T  </i>
 </incar>
 <parameters>
  <separator name="electronic">
   <i type="int" name="NELM">   60</i>
   <i type="logical" name="LCHIMAG"> F  </i>
   <i name="EDIFF">      0.00010000</i>
  </separator>
  <separator name="ionic">
   <i type="int" name="NSW">   100</i>
   <i type="int" name="IBRION">   1</i>
   <i type="int" name="ISIF">   2</i>
   <i name="EDIFFG">      -0.01000000</i>
   <i type="int" name="LORBIT">   0</i>
  </separator>
 </parameters>
 <atominfo>
  <atoms>     15 </atoms>
  <types>      1 </types>
  <array name="atoms">
   <dimension dim="1">ion</dimension>
   <field type="string">element</field>
   <field type="int">atomtype</field>
   <set>
    <rc>
     <c>Si</c>
     <c>   1</c>
    </rc>
    <rc>
     <c>Si</c>
     <c>   1</c>
    </rc>
    <rc>
     <c>Si</c>
     <c>   1</c>
    </rc>
    <rc>
     <c>Si</c>
     <c>   1</c>
    </rc>
    <rc>
     <c>Si</c>
     <c>   1</c>
    </rc>
    <rc>
     <c>Si</c>
     <c>   1</c>
    </rc>
    <rc>
     <c>Si</c>
     <c>   1</c>
    </rc>
    <rc>
     <c>Si</c>
     <c>   1</c>
    </rc>
    <rc>
     <c>Si</c>
     <c>   1</c>
    </rc>
    <rc>
     <c>Si</c>
     <c>   1</c>
    </rc>
    <rc>
     <c>Si</c>
     <c>   1</c>
    </rc>
    <rc>
     <c>Si</c>
     <c>   1</c>
    </rc>
    <rc>
     <c>Si</c>
     <c>   1</c>
    </rc>
    <rc>
     <c>Si</c>
     <c>   1</c>
    </rc>
    <rc>
     <c>Si</c>
     <c>   1</c>
    </rc>
   </set>
  </array>
  <array name="atomtypes">
   <dimension dim="1">type</dimension>
   <field type="int">atomspertype</field>
   <field type="string">element</field>
   <field>mass</field>
   <field>valence</field>
   <field type="string">pseudopotential</field>
   <set>
    <rc>
     <c>     15</c>
     <c>Si</c>
     <c>       28.08500000</c>
     <c>       0.00000000</c>
     <c>  PAW_PBE Si (MACE)                    </c>
    </rc>
   </set>
  </array>
 </atominfo>
 <structure name="initialpos">
  <crystal>
   <varray name="basis">
    <v>        5.47000000       5.47000000       0.00000000 </v>
    <v>        0.00000000       5.47000000       5.47000000 </v>
    <v>        5.47000000       0.00000000       5.47000000 </v>
   </varray>
   <i name="volume">      327.33464600 </i>
   <varray name="rec_basis">
    <v>        0.09140768       0.09140768      -0.09140768 </v>
    <v>       -0.09140768       0.09140768       0.09140768 </v>
    <v>        0.09140768      -0.09140768       0.09140768 </v>
   </varray>
  </crystal>
  <varray name="positions">
   <v>       -0.00053318      -0.00053318      -0.00053318 </v>
   <v>        0.12520237       0.12520237       0.12520237 </v>
   <v>       -0.00045802      -0.00045802       0.50243973 </v>
   <v>        0.12756419       0.12756419       0.62291041 </v>
   <v>       -0.00045802       0.50243973      -0.00045802 </v>
   <v>        0.12756419       0.62291041       0.12756419 </v>
   <v>       -0.01296615       0.50480586       0.50480586 </v>
   <v>        0.12809121       0.62297326       0.62297326 </v>
   <v>        0.50243973      -0.00045802      -0.00045802 </v>
   <v>        0.62291041       0.12756419       0.12756419 </v>
   <v>        0.50480586      -0.01296615       0.50480586 </v>
   <v>        0.62297326       0.12809121       0.62297326 </v>
   <v>        0.50480586       0.50480586      -0.01296615 </v>
   <v>        0.62297326       0.62297326       0.12809121 </v>
   <v>        0.50558491       0.50558491       0.50558491 </v>
  </varray>
 </structure>
 <calculation>
  <scstep>
   <energy>
    <i name="e_fr_energy">          -78.32727686 </i>
    <i name="e_wo_entrp">          -78.32727686 </i>
    <i name="e_0_energy">          -78.32727686 </i>
   </energy>
  </scstep>
  <structure>
   <crystal>
    <varray name="basis">
     <v>        5.47000000       5.47000000       0.00000000 </v>
     <v>        0.00000000       5.47000000       5.47000000 </v>
     <v>        5.47000000       0.00000000       5.47000000 </v>
    </varray>
    <i name="volume">      327.33464600 </i>
    <varray name="rec_basis">
     <v>        0.09140768       0.09140768      -0.09140768 </v>
     <v>       -0.09140768       0.09140768       0.09140768 </v>
     <v>        0.09140768      -0.09140768       0.09140768 </v>
    </varray>
   </crystal>
   <varray name="positions">
    <v>       -0.00053318      -0.00053318      -0.00053318 </v>
    <v>        0.12520237       0.12520237       0.12520237 </v>
    <v>       -0.00045802      -0.00045802       0.50243973 </v>
    <v>        0.12756419       0.12756419       0.62291041 </v>
    <v>       -0.00045802       0.50243973      -0.00045802 </v>
    <v>        0.12756419       0.62291041       0.12756419 </v>
    <v>       -0.01296615       0.50480586       0.50480586 </v>
    <v>        0.12809121       0.62297326       0.62297326 </v>
    <v>        0.50243973      -0.00045802      -0.00045802 </v>
    <v>        0.62291041       0.12756419       0.12756419 </v>
    <v>        0.50480586      -0.01296615       0.50480586 </v>
    <v>        0.62297326       0.12809121       0.62297326 </v>
    <v>        0.50480586       0.50480586      -0.01296615 </v>
    <v>        0.62297326       0.62297326       0.12809121 </v>
    <v>        0.50558491       0.50558491       0.50558491 </v>
   </varray>
  </structure>
  <varray name="forces">
   <v>       -0.04913281      -0.04913281      -0.04913281 </v>
   <v>        0.00356288       0.00356288       0.00356288 </v>
   <v>        0.05227202      -0.05026415       0.05227202 </v>
   <v>        0.00220349       0.01952174       0.00220349 </v>
   <v>       -0.05026415       0.05227202       0.05227202 </v>
   <v>        0.01952174       0.00220349       0.00220349 </v>
   <v>       -0.09010095      -0.09010095       0.09056551 </v>
   <v>       -0.00040824      -0.00040824      -0.01540692 </v>
   <v>        0.05227202       0.05227202      -0.05026415 </v>
   <v>        0.00220349       0.00220349       0.01952174 </v>
   <v>        0.09056551      -0.09010095      -0.09010095 </v>
   <v>       -0.01540692      -0.00040824      -0.00040824 </v>
   <v>       -0.09010095       0.09056551      -0.09010095 </v>
   <v>       -0.00040824      -0.01540692      -0.00040824 </v>
   <v>        0.07322113       0.07322113       0.07322113 </v>
  </varray>
  <varray name="stress">
   <v>      -22.40205375      -0.08709174      -0.08709174 </v>
   <v>       -0.08709174     -22.40205375      -0.08709174 </v>
   <v>       -0.08709174      -0.08709174     -22.40205375 </v>
  </varray>
  <energy>
   <i name="e_fr_energy">          -78.32727686 </i>
   <i name="e_wo_entrp">          -78.32727686 </i>
   <i name="e_0_energy">          -78.32727686 </i>
  </energy>
 </calculation>
 <structure name="finalpos">
  <crystal>
   <varray name="basis">
    <v>        5.47000000       5.47000000       0.00000000 </v>
    <v>        0.00000000       5.47000000       5.47000000 </v>
    <v>        5.47000000       0.00000000       5.47000000 </v>
   </varray>
   <i name="volume">      327.33464600 </i>
   <varray name="rec_basis">
    <v>        0.09140768       0.09140768      -0.09140768 </v>
    <v>       -0.09140768       0.09140768       0.09140768 </v>
    <v>        0.09140768      -0.09140768       0.09140768 </v>
   </varray>
  </crystal>
  <varray name="positions">
   <v>       -0.00053318      -0.00053318      -0.00053318 </v>
   <v>        0.12520237       0.12520237       0.12520237 </v>
   <v>       -0.00045802      -0.00045802       0.50243973 </v>
   <v>        0.12756419       0.12756419       0.62291041 </v>
   <v>       -0.00045802       0.50243973      -0.00045802 </v>
   <v>        0.12756419       0.62291041       0.12756419 </v>
   <v>       -0.01296615       0.50480586       0.50480586 </v>
   <v>        0.12809121       0.62297326       0.62297326 </v>
   <v>        0.50243973      -0.00045802      -0.00045802 </v>
   <v>        0.62291041       0.12756419       0.12756419 </v>
   <v>        0.50480586      -0.01296615       0.50480586 </v>
   <v>        0.62297326       0.12809121       0.62297326 </v>
   <v>        0.50480586       0.50480586      -0.01296615 </v>
   <v>        0.62297326       0.62297326       0.12809121 </v>
   <v>        0.50558491       0.50558491       0.50558491 </v>
  </varray>
 </structure>
</modeling>